REMARK SMILES COC(O)CCC1CCCC(N(CC2CCC(C3CCC(N(C)C)CC3)CC2)[C@H]2OC23CCCCC3)C1
REMARK SMILES IDX 7 1 8 2 9 3 10 4 11 5 37 6 6 7 5 8 3 9 2 10 1 11 4 12 12 14
REMARK SMILES IDX 13 15 14 16 15 17 28 18 16 19 27 20 17 21 18 22 19 23 26 24
REMARK SMILES IDX 20 25 25 26 21 27 22 28 23 29 24 30 29 31 30 32 31 33 32 34
REMARK SMILES IDX 36 35 33 36 35 37 34 38
REMARK H PARENT 4 13
ROOT
ATOM      1  C21 FEX A   1       5.915  32.419  52.514  1.00  0.00    -0.009 C 
ATOM      2  C20 FEX A   1       6.873  33.094  51.665  1.00  0.00     0.004 C 
ATOM      3  C19 FEX A   1       7.273  32.486  50.431  1.00  0.00     0.002 C 
ATOM      4  C18 FEX A   1       6.721  31.223  50.016  1.00  0.00     0.019 C 
ATOM      5  C17 FEX A   1       5.757  30.493  50.791  1.00  0.00     0.059 C 
ATOM      6  C22 FEX A   1       5.361  31.118  52.058  1.00  0.00     0.022 C 
ENDROOT
BRANCH   1   7
ATOM      7  C23 FEX A   1       5.347  32.609  53.667  1.00  0.00     0.009 C 
BRANCH   7   8
ATOM      8  C24 FEX A   1       5.046  32.133  54.898  1.00  0.00     0.062 C 
BRANCH   8   9
ATOM      9  C25 FEX A   1       5.167  32.924  56.117  1.00  0.00     0.246 C 
BRANCH   9  10
ATOM     10  O2  FEX A   1       4.365  32.396  57.274  1.00  0.00    -0.356 OA
ATOM     11  C26 FEX A   1       4.457  33.138  58.496  1.00  0.00     0.198 C 
ENDBRANCH   9  10
BRANCH   9  12
ATOM     12  O3  FEX A   1       5.892  34.080  56.345  1.00  0.00    -0.368 OA
ATOM     13  H   UNL     1       5.983  34.225  57.320  1.00  0.00     0.213 HD
ENDBRANCH   9  12
ENDBRANCH   8   9
ENDBRANCH   7   8
ENDBRANCH   1   7
BRANCH   5  14
ATOM     14  N2  FEX A   1       5.067  29.147  50.406  1.00  0.00    -0.273 NA
BRANCH  14  15
ATOM     15  C15 FEX A   1       5.994  28.247  50.738  1.00  0.00     0.091 C 
BRANCH  15  16
ATOM     16  C12 FEX A   1       6.106  27.558  52.088  1.00  0.00     0.003 C 
ATOM     17  C13 FEX A   1       7.329  26.964  52.440  1.00  0.00     0.005 C 
ATOM     18  C11 FEX A   1       5.026  27.507  53.036  1.00  0.00     0.005 C 
ATOM     19  C14 FEX A   1       7.518  26.322  53.701  1.00  0.00     0.004 C 
ATOM     20  C10 FEX A   1       5.215  26.876  54.278  1.00  0.00     0.004 C 
ATOM     21  C9  FEX A   1       6.482  26.247  54.678  1.00  0.00    -0.008 C 
BRANCH  21  22
ATOM     22  C6  FEX A   1       6.451  25.781  55.791  1.00  0.00    -0.008 C 
ATOM     23  C7  FEX A   1       5.263  25.136  56.453  1.00  0.00     0.005 C 
ATOM     24  C5  FEX A   1       7.681  25.871  56.582  1.00  0.00     0.005 C 
ATOM     25  C8  FEX A   1       5.332  24.646  57.810  1.00  0.00     0.019 C 
ATOM     26  C4  FEX A   1       7.743  25.386  57.923  1.00  0.00     0.019 C 
ATOM     27  C1  FEX A   1       6.554  24.748  58.597  1.00  0.00     0.056 C 
BRANCH  27  28
ATOM     28  N1  FEX A   1       6.439  24.196  60.053  1.00  0.00    -0.306 NA
ATOM     29  C2  FEX A   1       5.219  23.595  60.631  1.00  0.00     0.105 C 
ATOM     30  C3  FEX A   1       7.888  24.485  60.723  1.00  0.00     0.105 C 
ENDBRANCH  27  28
ENDBRANCH  21  22
ENDBRANCH  15  16
ENDBRANCH  14  15
BRANCH  14  31
ATOM     31  C16 FEX A   1       3.936  28.826  49.807  1.00  0.00     0.222 C 
ATOM     32  O1  FEX A   1       3.407  28.103  50.073  1.00  0.00    -0.349 OA
ATOM     33  C27 FEX A   1       2.684  29.715  49.529  1.00  0.00     0.110 C 
ATOM     34  C28 FEX A   1       2.128  30.520  50.721  1.00  0.00     0.040 C 
ATOM     35  C32 FEX A   1       2.933  30.665  48.275  1.00  0.00     0.040 C 
ATOM     36  C29 FEX A   1       0.891  31.438  50.401  1.00  0.00     0.003 C 
ATOM     37  C31 FEX A   1       1.732  31.615  47.968  1.00  0.00     0.003 C 
ATOM     38  C30 FEX A   1       0.503  31.427  48.896  1.00  0.00     0.000 C 
ENDBRANCH  14  31
ENDBRANCH   5  14
TORSDOF 11
