REMARK SMILES Cc1oc(=O)c(OCC2OC(CO)C(O)C(O)C2O)cc1CO
REMARK SMILES IDX 7 1 6 2 2 3 21 4 3 5 20 6 4 7 5 8 1 9 22 10 23 11 8 13 9 14
REMARK SMILES IDX 10 15 18 16 11 17 16 18 14 19 19 20 12 22 13 23 17 25 15 27
REMARK H PARENT 23 12 19 21 13 24 17 26 15 28
ROOT
ATOM      1  O   UNL     1       0.497  -1.511   0.172  1.00  0.00    -0.484 OA
ENDROOT
BRANCH   1   2
ATOM      2  C   UNL     1       1.762  -1.198  -0.279  1.00  0.00     0.205 C 
ATOM      3  C   UNL     1       4.350  -0.743  -1.303  1.00  0.00     0.111 C 
ATOM      4  C   UNL     1       3.806   0.156  -0.465  1.00  0.00     0.020 C 
ATOM      5  O   UNL     1       3.636  -1.911  -1.674  1.00  0.00    -0.425 OA
ATOM      6  C   UNL     1       2.474  -0.106   0.048  1.00  0.00     0.064 C 
ATOM      7  C   UNL     1       2.376  -2.188  -1.219  1.00  0.00     0.378 C 
ATOM      8  O   UNL     1       1.786  -3.206  -1.569  1.00  0.00    -0.242 OA
ATOM      9  C   UNL     1       5.701  -0.684  -1.946  1.00  0.00     0.088 C 
BRANCH   4  10
ATOM     10  C   UNL     1       4.442   1.445  -0.010  1.00  0.00     0.195 C 
BRANCH  10  11
ATOM     11  O   UNL     1       4.572   1.442   1.407  1.00  0.00    -0.392 OA
ATOM     12  H   UNL     1       5.068   0.640   1.647  1.00  0.00     0.211 HD
ENDBRANCH  10  11
ENDBRANCH   4  10
ENDBRANCH   1   2
BRANCH   1  13
ATOM     13  C   UNL     1      -0.201  -0.636   1.066  1.00  0.00     0.264 C 
BRANCH  13  14
ATOM     14  C   UNL     1      -0.927   0.484   0.301  1.00  0.00     0.187 C 
ATOM     15  O   UNL     1      -1.885  -0.057  -0.636  1.00  0.00    -0.363 OA
ATOM     16  C   UNL     1      -1.552   1.563   1.212  1.00  0.00     0.178 C 
ATOM     17  C   UNL     1      -3.174  -0.356  -0.077  1.00  0.00     0.175 C 
ATOM     18  C   UNL     1      -2.848   2.078   0.558  1.00  0.00     0.177 C 
ATOM     19  C   UNL     1      -3.859   0.925   0.446  1.00  0.00     0.177 C 
BRANCH  16  20
ATOM     20  O   UNL     1      -1.776   1.049   2.533  1.00  0.00    -0.387 OA
ATOM     21  H   UNL     1      -2.733   0.859   2.628  1.00  0.00     0.211 HD
ENDBRANCH  16  20
BRANCH  17  22
ATOM     22  C   UNL     1      -3.994  -1.026  -1.189  1.00  0.00     0.190 C 
BRANCH  22  23
ATOM     23  O   UNL     1      -5.310  -1.342  -0.761  1.00  0.00    -0.394 OA
ATOM     24  H   UNL     1      -5.703  -1.913  -1.445  1.00  0.00     0.210 HD
ENDBRANCH  22  23
ENDBRANCH  17  22
BRANCH  18  25
ATOM     25  O   UNL     1      -3.428   3.132   1.340  1.00  0.00    -0.387 OA
ATOM     26  H   UNL     1      -4.031   3.628   0.758  1.00  0.00     0.211 HD
ENDBRANCH  18  25
BRANCH  19  27
ATOM     27  O   UNL     1      -4.387   0.686   1.769  1.00  0.00    -0.388 OA
ATOM     28  H   UNL     1      -4.705   1.556   2.086  1.00  0.00     0.211 HD
ENDBRANCH  19  27
ENDBRANCH  13  14
ENDBRANCH   1  13
TORSDOF 10
