REMARK SMILES CC1CCC2(CCCC3(CCC4(CCC(C)(C)C4)C3)C2)CC12CCC(O)C(C)(C)C2C(=O)O
REMARK SMILES IDX 16 1 15 2 17 3 14 4 13 5 12 6 18 7 11 8 10 9 9 10 19 11 8 12
REMARK SMILES IDX 7 13 6 14 5 15 20 16 4 17 3 18 2 19 1 20 22 21 21 22 23 23
REMARK SMILES IDX 24 24 25 25 27 26 28 27 29 28 30 29 31 30 32 31 33 32 26 34
REMARK H PARENT 33 33 26 35
ROOT
ATOM      1  C   UNL     1       8.029   1.786   0.557  1.00  0.00     0.011 C 
ATOM      2  C   UNL     1       6.815   1.144  -0.121  1.00  0.00    -0.035 C 
ATOM      3  C   UNL     1       6.735   1.641  -1.574  1.00  0.00     0.011 C 
ATOM      4  C   UNL     1       6.882  -0.385  -0.050  1.00  0.00     0.007 C 
ATOM      5  C   UNL     1       5.443  -0.836  -0.269  1.00  0.00     0.007 C 
ATOM      6  C   UNL     1       4.572   0.247   0.404  1.00  0.00    -0.029 C 
ATOM      7  C   UNL     1       5.513   1.450   0.641  1.00  0.00     0.013 C 
ATOM      8  C   UNL     1       3.933  -0.242   1.705  1.00  0.00     0.007 C 
ATOM      9  C   UNL     1       2.744  -1.090   1.258  1.00  0.00     0.007 C 
ATOM     10  C   UNL     1       2.236  -0.464  -0.066  1.00  0.00    -0.029 C 
ATOM     11  C   UNL     1       3.321   0.602  -0.413  1.00  0.00     0.014 C 
ATOM     12  C   UNL     1       2.157  -1.520  -1.183  1.00  0.00     0.007 C 
ATOM     13  C   UNL     1       0.996  -2.482  -0.984  1.00  0.00     0.001 C 
ATOM     14  C   UNL     1      -0.337  -1.740  -0.952  1.00  0.00     0.007 C 
ATOM     15  C   UNL     1      -0.432  -0.641   0.133  1.00  0.00    -0.029 C 
ATOM     16  C   UNL     1       0.861   0.246   0.061  1.00  0.00     0.014 C 
ATOM     17  C   UNL     1      -0.607  -1.233   1.552  1.00  0.00     0.007 C 
ATOM     18  C   UNL     1      -2.046  -1.228   2.077  1.00  0.00     0.004 C 
ATOM     19  C   UNL     1      -3.084  -1.479   0.973  1.00  0.00    -0.007 C 
ATOM     20  C   UNL     1      -4.375  -1.939   1.639  1.00  0.00     0.008 C 
ATOM     21  C   UNL     1      -3.135  -0.267  -0.061  1.00  0.00    -0.013 C 
ATOM     22  C   UNL     1      -1.644   0.308  -0.129  1.00  0.00     0.015 C 
ATOM     23  C   UNL     1      -3.486  -0.798  -1.483  1.00  0.00     0.011 C 
ATOM     24  C   UNL     1      -4.968  -0.984  -1.779  1.00  0.00     0.033 C 
ATOM     25  C   UNL     1      -5.741   0.322  -1.652  1.00  0.00     0.121 C 
ATOM     26  C   UNL     1      -5.646   0.933  -0.233  1.00  0.00     0.004 C 
ATOM     27  C   UNL     1      -6.256   2.369  -0.240  1.00  0.00     0.015 C 
ATOM     28  C   UNL     1      -6.615   0.151   0.692  1.00  0.00     0.015 C 
ATOM     29  C   UNL     1      -4.154   0.922   0.342  1.00  0.00     0.114 C 
ENDROOT
BRANCH  29  30
ATOM     30  C   UNL     1      -3.535   2.308   0.145  1.00  0.00     0.307 C 
ATOM     31  O   UNL     1      -3.348   3.127   1.032  1.00  0.00    -0.252 OA
BRANCH  30  32
ATOM     32  O   UNL     1      -3.211   2.605  -1.123  1.00  0.00    -0.481 OA
ATOM     33  H   UNL     1      -2.837   3.509  -1.078  1.00  0.00     0.296 HD
ENDBRANCH  30  32
ENDBRANCH  29  30
BRANCH  25  34
ATOM     34  O   UNL     1      -5.246   1.205  -2.655  1.00  0.00    -0.393 OA
ATOM     35  H   UNL     1      -5.879   1.934  -2.760  1.00  0.00     0.210 HD
ENDBRANCH  25  34
TORSDOF 3
