REMARK SMILES COc1cc(C2OC(=O)C2Cc2ccc(OC)c(O[C@@H]3O[C@H](CO)[C@@H](O)[C@H](O)[C@H]3O)c2)ccc1O
REMARK SMILES IDX 18 1 31 2 12 3 13 4 14 5 15 6 19 7 20 8 22 9 21 10 25 11
REMARK SMILES IDX 27 12 29 13 23 14 24 15 26 17 28 19 30 21 16 23 17 24 11 25
REMARK SMILES IDX 10 26 8 27 6 28 9 29 7 30 5 31 32 32 4 33 33 34 3 35 34 36
REMARK SMILES IDX 2 37 1 38 35 39
REMARK H PARENT 24 16 26 18 28 20 30 22 35 40
ROOT
ATOM      1  C   UNL     1      -1.731  -1.022  -0.488  1.00  0.00     0.165 A 
ATOM      2  C   UNL     1      -0.715  -0.215   0.025  1.00  0.00     0.054 A 
ATOM      3  C   UNL     1       0.486  -0.066  -0.683  1.00  0.00    -0.043 A 
ATOM      4  C   UNL     1       0.655  -0.753  -1.897  1.00  0.00     0.008 A 
ATOM      5  C   UNL     1      -0.356  -1.579  -2.395  1.00  0.00     0.051 A 
ATOM      6  C   UNL     1      -1.537  -1.729  -1.674  1.00  0.00     0.160 A 
ENDROOT
BRANCH   1   7
ATOM      7  O   UNL     1      -2.912  -1.179   0.184  1.00  0.00    -0.458 OA
BRANCH   7   8
ATOM      8  C   UNL     1      -3.693   0.033   0.180  1.00  0.00     0.339 C 
ATOM      9  C   UNL     1      -4.754   1.412   1.886  1.00  0.00     0.179 C 
ATOM     10  O   UNL     1      -3.631   0.617   1.481  1.00  0.00    -0.332 OA
ATOM     11  C   UNL     1      -5.632   1.935   0.732  1.00  0.00     0.177 C 
ATOM     12  C   UNL     1      -6.022   0.844  -0.275  1.00  0.00     0.180 C 
ATOM     13  C   UNL     1      -5.119  -0.388  -0.204  1.00  0.00     0.214 C 
BRANCH   9  14
ATOM     14  C   UNL     1      -5.561   0.643   2.944  1.00  0.00     0.191 C 
BRANCH  14  15
ATOM     15  O   UNL     1      -6.476   1.497   3.621  1.00  0.00    -0.394 OA
ATOM     16  H   UNL     1      -5.954   2.074   4.207  1.00  0.00     0.210 HD
ENDBRANCH  14  15
ENDBRANCH   9  14
BRANCH  11  17
ATOM     17  O   UNL     1      -4.866   2.935   0.028  1.00  0.00    -0.387 OA
ATOM     18  H   UNL     1      -5.494   3.423  -0.535  1.00  0.00     0.211 HD
ENDBRANCH  11  17
BRANCH  12  19
ATOM     19  O   UNL     1      -7.384   0.441  -0.080  1.00  0.00    -0.387 OA
ATOM     20  H   UNL     1      -7.547  -0.267  -0.734  1.00  0.00     0.211 HD
ENDBRANCH  12  19
BRANCH  13  21
ATOM     21  O   UNL     1      -5.186  -1.060  -1.476  1.00  0.00    -0.384 OA
ATOM     22  H   UNL     1      -4.392  -1.632  -1.533  1.00  0.00     0.211 HD
ENDBRANCH  13  21
ENDBRANCH   7   8
ENDBRANCH   1   7
BRANCH   6  23
ATOM     23  O   UNL     1      -2.541  -2.513  -2.184  1.00  0.00    -0.493 OA
ATOM     24  C   UNL     1      -2.400  -3.848  -1.690  1.00  0.00     0.278 C 
ENDBRANCH   6  23
BRANCH   3  25
ATOM     25  C   UNL     1       1.591   0.803  -0.138  1.00  0.00     0.055 C 
BRANCH  25  26
ATOM     26  C   UNL     1       2.575  -0.033   0.658  1.00  0.00     0.149 C 
ATOM     27  C   UNL     1       2.202  -0.327   2.120  1.00  0.00     0.314 C 
ATOM     28  C   UNL     1       3.723   0.765   1.314  1.00  0.00     0.221 C 
ATOM     29  O   UNL     1       1.327  -0.901   2.723  1.00  0.00    -0.252 OA
ATOM     30  O   UNL     1       3.277   0.322   2.632  1.00  0.00    -0.456 OA
BRANCH  28  31
ATOM     31  C   UNL     1       5.211   0.369   0.931  1.00  0.00    -0.003 A 
ATOM     32  C   UNL     1       6.038  -0.389   1.783  1.00  0.00     0.011 A 
ATOM     33  C   UNL     1       5.772   0.764  -0.307  1.00  0.00     0.058 A 
ATOM     34  C   UNL     1       7.342  -0.740   1.429  1.00  0.00     0.050 A 
ATOM     35  C   UNL     1       7.078   0.424  -0.682  1.00  0.00     0.160 A 
ATOM     36  C   UNL     1       7.853  -0.334   0.200  1.00  0.00     0.157 A 
BRANCH  35  37
ATOM     37  O   UNL     1       7.673   0.773  -1.865  1.00  0.00    -0.493 OA
ATOM     38  C   UNL     1       6.940   1.602  -2.754  1.00  0.00     0.278 C 
ENDBRANCH  35  37
BRANCH  36  39
ATOM     39  O   UNL     1       9.130  -0.677  -0.153  1.00  0.00    -0.504 OA
ATOM     40  H   UNL     1       9.532  -1.190   0.565  1.00  0.00     0.293 HD
ENDBRANCH  36  39
ENDBRANCH  28  31
ENDBRANCH  25  26
ENDBRANCH   3  25
TORSDOF 13
