REMARK SMILES O=c1c(-c2ccc(O)cc2)coc2cc(O)ccc12
REMARK SMILES IDX 1 1 2 2 3 3 11 4 12 5 13 6 14 7 15 8 17 9 18 10 19 11 4 12
REMARK SMILES IDX 5 13 10 14 6 15 9 16 7 17 8 18 16 20
REMARK H PARENT 8 19 16 21
ROOT
ATOM      1  O   UNL     1      -0.369  -1.555  -1.182  1.00  0.00    -0.288 OA
ATOM      2  C   UNL     1      -0.604  -0.596  -0.455  1.00  0.00     0.200 C 
ATOM      3  C   UNL     1       0.469   0.245   0.149  1.00  0.00     0.065 C 
ATOM      4  C   UNL     1       0.074   1.282   0.905  1.00  0.00     0.208 C 
ATOM      5  O   UNL     1      -1.218   1.645   1.201  1.00  0.00    -0.463 OA
ATOM      6  C   UNL     1      -2.229   0.882   0.678  1.00  0.00     0.141 A 
ATOM      7  C   UNL     1      -3.536   1.253   0.991  1.00  0.00     0.094 A 
ATOM      8  C   UNL     1      -4.598   0.511   0.483  1.00  0.00     0.119 A 
ATOM      9  C   UNL     1      -4.377  -0.596  -0.333  1.00  0.00     0.047 A 
ATOM     10  C   UNL     1      -3.067  -0.966  -0.645  1.00  0.00     0.020 A 
ATOM     11  C   UNL     1      -1.994  -0.223  -0.137  1.00  0.00     0.066 A 
ENDROOT
BRANCH   3  12
ATOM     12  C   UNL     1       1.904  -0.010  -0.087  1.00  0.00    -0.011 A 
ATOM     13  C   UNL     1       2.816  -0.048   0.981  1.00  0.00     0.013 A 
ATOM     14  C   UNL     1       2.385  -0.225  -1.387  1.00  0.00     0.013 A 
ATOM     15  C   UNL     1       4.174  -0.283   0.750  1.00  0.00     0.047 A 
ATOM     16  C   UNL     1       3.743  -0.463  -1.620  1.00  0.00     0.047 A 
ATOM     17  C   UNL     1       4.626  -0.488  -0.547  1.00  0.00     0.115 A 
BRANCH  17  18
ATOM     18  O   UNL     1       5.958  -0.717  -0.727  1.00  0.00    -0.508 OA
ATOM     19  H   UNL     1       6.118  -0.878  -1.672  1.00  0.00     0.293 HD
ENDBRANCH  17  18
ENDBRANCH   3  12
BRANCH   8  20
ATOM     20  O   UNL     1      -5.861   0.906   0.813  1.00  0.00    -0.508 OA
ATOM     21  H   UNL     1      -6.499   0.303   0.397  1.00  0.00     0.293 HD
ENDBRANCH   8  20
TORSDOF 3
