REMARK SMILES O=c1cc(-c2ccc(O)cc2)oc2cc(O)cc(O)c12
REMARK SMILES IDX 1 1 2 2 3 3 4 4 12 5 13 6 14 7 15 8 17 9 18 10 20 11 5 12
REMARK SMILES IDX 6 13 11 14 7 15 10 16 8 17 9 18 19 20 16 22
REMARK H PARENT 9 19 19 21 16 23
ROOT
ATOM      1  O   UNL     1       1.938   2.477  -1.764  1.00  0.00    -0.289 OA
ATOM      2  C   UNL     1       1.437   1.548  -1.140  1.00  0.00     0.197 C 
ATOM      3  C   UNL     1      -0.020   1.381  -1.042  1.00  0.00     0.100 C 
ATOM      4  C   UNL     1      -0.510   0.351  -0.338  1.00  0.00     0.138 C 
ATOM      5  O   UNL     1       0.272  -0.599   0.302  1.00  0.00    -0.456 OA
ATOM      6  C   UNL     1       1.637  -0.477   0.234  1.00  0.00     0.146 A 
ATOM      7  C   UNL     1       2.396  -1.443   0.895  1.00  0.00     0.094 A 
ATOM      8  C   UNL     1       3.785  -1.367   0.857  1.00  0.00     0.123 A 
ATOM      9  C   UNL     1       4.431  -0.343   0.169  1.00  0.00     0.093 A 
ATOM     10  C   UNL     1       3.669   0.619  -0.489  1.00  0.00     0.134 A 
ATOM     11  C   UNL     1       2.271   0.553  -0.458  1.00  0.00     0.107 A 
ENDROOT
BRANCH   4  12
ATOM     12  C   UNL     1      -1.963   0.122  -0.209  1.00  0.00     0.018 A 
ATOM     13  C   UNL     1      -2.851   1.176   0.062  1.00  0.00     0.016 A 
ATOM     14  C   UNL     1      -2.481  -1.176  -0.332  1.00  0.00     0.016 A 
ATOM     15  C   UNL     1      -4.224   0.941   0.191  1.00  0.00     0.047 A 
ATOM     16  C   UNL     1      -3.852  -1.412  -0.204  1.00  0.00     0.047 A 
ATOM     17  C   UNL     1      -4.712  -0.353   0.054  1.00  0.00     0.115 A 
BRANCH  17  18
ATOM     18  O   UNL     1      -6.041  -0.629   0.172  1.00  0.00    -0.508 OA
ATOM     19  H   UNL     1      -6.516   0.197   0.358  1.00  0.00     0.293 HD
ENDBRANCH  17  18
ENDBRANCH   4  12
BRANCH  10  20
ATOM     20  O   UNL     1       4.353   1.603  -1.150  1.00  0.00    -0.507 OA
ATOM     21  H   UNL     1       3.697   2.207  -1.567  1.00  0.00     0.293 HD
ENDBRANCH  10  20
BRANCH   8  22
ATOM     22  O   UNL     1       4.489  -2.331   1.516  1.00  0.00    -0.508 OA
ATOM     23  H   UNL     1       5.440  -2.156   1.407  1.00  0.00     0.293 HD
ENDBRANCH   8  22
TORSDOF 4
