REMARK SMILES O=c1c(O)c(-c2ccc(O)c(O)c2)oc2cc(O)cc(O)c12
REMARK SMILES IDX 1 1 2 2 3 3 5 4 14 5 15 6 16 7 17 8 19 9 20 10 22 11 4 12
REMARK SMILES IDX 6 14 13 15 7 16 11 17 8 18 9 19 12 20 10 22 21 24 18 26
REMARK H PARENT 4 13 12 21 10 23 21 25 18 27
ROOT
ATOM      1  O   UNL     1      -1.490   2.737  -1.842  1.00  0.00    -0.285 OA
ATOM      2  C   UNL     1      -1.232   1.707  -1.223  1.00  0.00     0.238 C 
ATOM      3  C   UNL     1       0.173   1.276  -1.035  1.00  0.00     0.208 C 
ATOM      4  C   UNL     1       0.410   0.139  -0.354  1.00  0.00     0.180 C 
ATOM      5  O   UNL     1      -0.589  -0.665   0.181  1.00  0.00    -0.452 OA
ATOM      6  C   UNL     1      -1.899  -0.288   0.030  1.00  0.00     0.146 A 
ATOM      7  C   UNL     1      -2.868  -1.118   0.591  1.00  0.00     0.094 A 
ATOM      8  C   UNL     1      -4.214  -0.784   0.466  1.00  0.00     0.123 A 
ATOM      9  C   UNL     1      -4.609   0.366  -0.211  1.00  0.00     0.093 A 
ATOM     10  C   UNL     1      -3.637   1.192  -0.770  1.00  0.00     0.134 A 
ATOM     11  C   UNL     1      -2.282   0.865  -0.649  1.00  0.00     0.111 A 
ENDROOT
BRANCH   3  12
ATOM     12  O   UNL     1       1.155   2.073  -1.594  1.00  0.00    -0.502 OA
ATOM     13  H   UNL     1       0.673   2.790  -2.057  1.00  0.00     0.293 HD
ENDBRANCH   3  12
BRANCH   4  14
ATOM     14  C   UNL     1       1.769  -0.399  -0.119  1.00  0.00     0.025 A 
ATOM     15  C   UNL     1       2.821   0.420   0.324  1.00  0.00     0.062 A 
ATOM     16  C   UNL     1       2.013  -1.774  -0.305  1.00  0.00     0.016 A 
ATOM     17  C   UNL     1       4.079  -0.130   0.553  1.00  0.00     0.158 A 
ATOM     18  C   UNL     1       3.278  -2.319  -0.070  1.00  0.00     0.051 A 
ATOM     19  C   UNL     1       4.301  -1.489   0.357  1.00  0.00     0.157 A 
BRANCH  17  20
ATOM     20  O   UNL     1       5.134   0.632   0.975  1.00  0.00    -0.504 OA
ATOM     21  H   UNL     1       4.838   1.558   1.019  1.00  0.00     0.293 HD
ENDBRANCH  17  20
BRANCH  19  22
ATOM     22  O   UNL     1       5.538  -2.019   0.587  1.00  0.00    -0.504 OA
ATOM     23  H   UNL     1       6.080  -1.257   0.873  1.00  0.00     0.293 HD
ENDBRANCH  19  22
ENDBRANCH   4  14
BRANCH  10  24
ATOM     24  O   UNL     1      -4.080   2.309  -1.425  1.00  0.00    -0.507 OA
ATOM     25  H   UNL     1      -3.300   2.797  -1.773  1.00  0.00     0.293 HD
ENDBRANCH  10  24
BRANCH   8  26
ATOM     26  O   UNL     1      -5.129  -1.624   1.030  1.00  0.00    -0.508 OA
ATOM     27  H   UNL     1      -6.021  -1.273   0.868  1.00  0.00     0.293 HD
ENDBRANCH   8  26
TORSDOF 6
