REMARK SMILES COc1cc2ccc(=O)oc2cc1O
REMARK SMILES IDX 3 1 4 2 5 3 6 4 7 5 8 6 9 7 10 8 11 9 12 10 13 11 2 12 1 13
REMARK SMILES IDX 14 14
REMARK H PARENT 14 15
ROOT
ATOM      1  C   UNL     1      -1.403   0.462  -0.069  1.00  0.00     0.161 A 
ATOM      2  C   UNL     1      -0.524  -0.595  -0.323  1.00  0.00     0.062 A 
ATOM      3  C   UNL     1       0.839  -0.456  -0.028  1.00  0.00     0.022 A 
ATOM      4  C   UNL     1       1.791  -1.528  -0.275  1.00  0.00     0.019 C 
ATOM      5  C   UNL     1       3.081  -1.346   0.023  1.00  0.00     0.094 C 
ATOM      6  C   UNL     1       3.592  -0.090   0.600  1.00  0.00     0.336 C 
ATOM      7  O   UNL     1       4.783   0.037   0.860  1.00  0.00    -0.246 OA
ATOM      8  O   UNL     1       2.667   0.919   0.827  1.00  0.00    -0.423 OA
ATOM      9  C   UNL     1       1.304   0.742   0.518  1.00  0.00     0.142 A 
ATOM     10  C   UNL     1       0.447   1.805   0.778  1.00  0.00     0.098 A 
ATOM     11  C   UNL     1      -0.899   1.651   0.480  1.00  0.00     0.161 A 
ENDROOT
BRANCH   1  12
ATOM     12  O   UNL     1      -2.754   0.466  -0.306  1.00  0.00    -0.493 OA
ATOM     13  C   UNL     1      -3.310  -0.720  -0.863  1.00  0.00     0.278 C 
ENDBRANCH   1  12
BRANCH  11  14
ATOM     14  O   UNL     1      -1.741   2.699   0.737  1.00  0.00    -0.504 OA
ATOM     15  H   UNL     1      -2.626   2.390   0.462  1.00  0.00     0.293 HD
ENDBRANCH  11  14
TORSDOF 2
