REMARK SMILES COc1cc(O)c2c(c1)C(=O)c1cc(OC)c(C)cc1C2=O
REMARK SMILES IDX 3 1 4 2 5 3 7 4 8 5 9 6 10 7 11 8 12 9 13 10 14 11 17 12
REMARK SMILES IDX 18 13 19 14 20 15 21 16 22 17 2 18 1 19 6 20 15 22 16 23
REMARK H PARENT 6 21
ROOT
ATOM      1  C   UNL     1       3.837   0.346  -1.055  1.00  0.00     0.123 A 
ATOM      2  C   UNL     1       4.053  -0.230   0.196  1.00  0.00     0.093 A 
ATOM      3  C   UNL     1       2.967  -0.559   1.010  1.00  0.00     0.131 A 
ATOM      4  C   UNL     1       1.653  -0.318   0.587  1.00  0.00     0.076 A 
ATOM      5  C   UNL     1       1.438   0.257  -0.663  1.00  0.00     0.041 A 
ATOM      6  C   UNL     1       2.527   0.588  -1.480  1.00  0.00     0.059 A 
ATOM      7  C   UNL     1       0.065   0.524  -1.139  1.00  0.00     0.194 C 
ATOM      8  O   UNL     1      -0.125   1.031  -2.238  1.00  0.00    -0.289 OA
ATOM      9  C   UNL     1      -1.080   0.175  -0.274  1.00  0.00     0.037 A 
ATOM     10  C   UNL     1      -2.385   0.426  -0.721  1.00  0.00     0.059 A 
ATOM     11  C   UNL     1      -3.481   0.102   0.083  1.00  0.00     0.122 A 
ATOM     12  C   UNL     1      -3.267  -0.480   1.347  1.00  0.00    -0.008 A 
ATOM     13  C   UNL     1      -4.429  -0.839   2.234  1.00  0.00     0.048 C 
ATOM     14  C   UNL     1      -1.957  -0.728   1.785  1.00  0.00     0.020 A 
ATOM     15  C   UNL     1      -0.866  -0.400   0.974  1.00  0.00     0.034 A 
ATOM     16  C   UNL     1       0.506  -0.666   1.447  1.00  0.00     0.198 C 
ATOM     17  O   UNL     1       0.707  -1.173   2.547  1.00  0.00    -0.288 OA
ENDROOT
BRANCH   1  18
ATOM     18  O   UNL     1       4.804   0.715  -1.947  1.00  0.00    -0.497 OA
ATOM     19  C   UNL     1       6.156   0.490  -1.563  1.00  0.00     0.278 C 
ENDBRANCH   1  18
BRANCH   3  20
ATOM     20  O   UNL     1       3.269  -1.121   2.222  1.00  0.00    -0.507 OA
ATOM     21  H   UNL     1       2.426  -1.305   2.696  1.00  0.00     0.293 HD
ENDBRANCH   3  20
BRANCH  11  22
ATOM     22  O   UNL     1      -4.791   0.307  -0.260  1.00  0.00    -0.496 OA
ATOM     23  C   UNL     1      -5.055   0.893  -1.529  1.00  0.00     0.278 C 
ENDBRANCH  11  22
TORSDOF 3
