REMARK SMILES O=c1c(O)c(-c2ccc(O)cc2)oc2cc(O)cc(O)c12
REMARK SMILES IDX 1 1 2 2 3 3 5 4 13 5 14 6 15 7 16 8 18 9 19 10 21 11 4 12
REMARK SMILES IDX 6 14 7 15 12 16 8 17 11 18 9 19 10 20 20 22 17 24
REMARK H PARENT 4 13 10 21 20 23 17 25
ROOT
ATOM      1  O   UNL     1      -2.256  -2.314  -1.472  1.00  0.00    -0.285 OA
ATOM      2  C   UNL     1      -1.662  -1.397  -0.908  1.00  0.00     0.238 C 
ATOM      3  C   UNL     1      -0.185  -1.409  -0.808  1.00  0.00     0.208 C 
ATOM      4  C   UNL     1       0.425  -0.388  -0.178  1.00  0.00     0.180 C 
ATOM      5  O   UNL     1      -0.250   0.681   0.399  1.00  0.00    -0.452 OA
ATOM      6  C   UNL     1      -1.619   0.727   0.314  1.00  0.00     0.146 A 
ATOM      7  C   UNL     1      -2.251   1.828   0.894  1.00  0.00     0.094 A 
ATOM      8  C   UNL     1      -3.639   1.923   0.837  1.00  0.00     0.123 A 
ATOM      9  C   UNL     1      -4.401   0.938   0.213  1.00  0.00     0.093 A 
ATOM     10  C   UNL     1      -3.765  -0.158  -0.364  1.00  0.00     0.134 A 
ATOM     11  C   UNL     1      -2.372  -0.263  -0.314  1.00  0.00     0.111 A 
ENDROOT
BRANCH   3  12
ATOM     12  O   UNL     1       0.474  -2.491  -1.362  1.00  0.00    -0.502 OA
ATOM     13  H   UNL     1      -0.232  -3.073  -1.713  1.00  0.00     0.293 HD
ENDBRANCH   3  12
BRANCH   4  14
ATOM     14  C   UNL     1       1.891  -0.300  -0.007  1.00  0.00     0.021 A 
ATOM     15  C   UNL     1       2.773  -0.506  -1.080  1.00  0.00     0.016 A 
ATOM     16  C   UNL     1       2.428   0.036   1.246  1.00  0.00     0.016 A 
ATOM     17  C   UNL     1       4.156  -0.394  -0.903  1.00  0.00     0.047 A 
ATOM     18  C   UNL     1       3.809   0.149   1.424  1.00  0.00     0.047 A 
ATOM     19  C   UNL     1       4.661  -0.068   0.350  1.00  0.00     0.115 A 
BRANCH  19  20
ATOM     20  O   UNL     1       6.002   0.051   0.567  1.00  0.00    -0.508 OA
ATOM     21  H   UNL     1       6.469  -0.148  -0.261  1.00  0.00     0.293 HD
ENDBRANCH  19  20
ENDBRANCH   4  14
BRANCH  10  22
ATOM     22  O   UNL     1      -4.563  -1.094  -0.963  1.00  0.00    -0.507 OA
ATOM     23  H   UNL     1      -3.992  -1.809  -1.322  1.00  0.00     0.293 HD
ENDBRANCH  10  22
BRANCH   8  24
ATOM     24  O   UNL     1      -4.300   2.980   1.389  1.00  0.00    -0.508 OA
ATOM     25  H   UNL     1      -3.657   3.591   1.785  1.00  0.00     0.293 HD
ENDBRANCH   8  24
TORSDOF 5
