REMARK SMILES O=c1cc(-c2ccc(O)c(O)c2)oc2cc(O)cc(O)c12
REMARK SMILES IDX 1 1 2 2 3 3 4 4 13 5 14 6 15 7 16 8 18 9 19 10 21 11 5 12
REMARK SMILES IDX 12 13 6 14 10 15 7 16 8 17 11 18 9 20 20 22 17 24
REMARK H PARENT 11 19 9 21 20 23 17 25
ROOT
ATOM      1  O   UNL     1       1.649   2.598   1.712  1.00  0.00    -0.289 OA
ATOM      2  C   UNL     1       1.307   1.681   0.973  1.00  0.00     0.197 C 
ATOM      3  C   UNL     1      -0.100   1.275   0.850  1.00  0.00     0.100 C 
ATOM      4  C   UNL     1      -0.412   0.255   0.037  1.00  0.00     0.138 C 
ATOM      5  O   UNL     1       0.509  -0.446  -0.726  1.00  0.00    -0.456 OA
ATOM      6  C   UNL     1       1.833  -0.094  -0.640  1.00  0.00     0.146 A 
ATOM      7  C   UNL     1       2.736  -0.821  -1.415  1.00  0.00     0.094 A 
ATOM      8  C   UNL     1       4.091  -0.505  -1.366  1.00  0.00     0.123 A 
ATOM      9  C   UNL     1       4.560   0.526  -0.556  1.00  0.00     0.093 A 
ATOM     10  C   UNL     1       3.654   1.249   0.215  1.00  0.00     0.134 A 
ATOM     11  C   UNL     1       2.290   0.940   0.174  1.00  0.00     0.107 A 
ENDROOT
BRANCH   4  12
ATOM     12  C   UNL     1      -1.806  -0.196  -0.137  1.00  0.00     0.021 A 
ATOM     13  C   UNL     1      -2.654  -0.395   0.968  1.00  0.00     0.062 A 
ATOM     14  C   UNL     1      -2.297  -0.457  -1.429  1.00  0.00     0.016 A 
ATOM     15  C   UNL     1      -3.960  -0.830   0.765  1.00  0.00     0.158 A 
ATOM     16  C   UNL     1      -3.611  -0.892  -1.623  1.00  0.00     0.051 A 
ATOM     17  C   UNL     1      -4.432  -1.073  -0.522  1.00  0.00     0.157 A 
BRANCH  15  18
ATOM     18  O   UNL     1      -4.824  -1.039   1.805  1.00  0.00    -0.504 OA
ATOM     19  H   UNL     1      -4.356  -0.851   2.637  1.00  0.00     0.293 HD
ENDBRANCH  15  18
BRANCH  17  20
ATOM     20  O   UNL     1      -5.715  -1.498  -0.710  1.00  0.00    -0.504 OA
ATOM     21  H   UNL     1      -6.090  -1.556   0.191  1.00  0.00     0.293 HD
ENDBRANCH  17  20
ENDBRANCH   4  12
BRANCH  10  22
ATOM     22  O   UNL     1       4.168   2.251   0.993  1.00  0.00    -0.507 OA
ATOM     23  H   UNL     1       3.425   2.676   1.479  1.00  0.00     0.293 HD
ENDBRANCH  10  22
BRANCH   8  24
ATOM     24  O   UNL     1       4.940  -1.241  -2.139  1.00  0.00    -0.508 OA
ATOM     25  H   UNL     1       5.846  -0.915  -2.009  1.00  0.00     0.293 HD
ENDBRANCH   8  24
TORSDOF 5
