REMARK SMILES COc1cc(C[C@@H](CO)[C@H](CO)Cc2ccc(O)c(OC)c2)ccc1O
REMARK SMILES IDX 7 1 6 2 5 3 3 4 25 5 4 6 24 7 23 8 2 9 1 10 26 11 8 13 9 14
REMARK SMILES IDX 10 16 13 17 14 18 22 19 15 20 19 21 16 22 17 23 20 24 21 25
REMARK SMILES IDX 18 26 11 28 12 29
REMARK H PARENT 26 12 9 15 18 27 12 30
ROOT
ATOM      1  C   UNL     1       0.849  -0.908  -0.274  1.00  0.00     0.025 C 
ENDROOT
BRANCH   1   2
ATOM      2  C   UNL     1       1.431   0.515  -0.434  1.00  0.00     0.042 C 
BRANCH   2   3
ATOM      3  C   UNL     1       2.933   0.532  -0.612  1.00  0.00    -0.044 A 
ATOM      4  C   UNL     1       5.164   0.973   0.267  1.00  0.00     0.160 A 
ATOM      5  C   UNL     1       5.704   0.543  -0.952  1.00  0.00     0.157 A 
ATOM      6  C   UNL     1       3.774   0.966   0.427  1.00  0.00     0.054 A 
ATOM      7  C   UNL     1       4.882   0.113  -1.993  1.00  0.00     0.050 A 
ATOM      8  C   UNL     1       3.499   0.108  -1.822  1.00  0.00     0.008 A 
BRANCH   4   9
ATOM      9  O   UNL     1       6.063   1.373   1.220  1.00  0.00    -0.493 OA
ATOM     10  C   UNL     1       5.547   1.815   2.466  1.00  0.00     0.278 C 
ENDBRANCH   4   9
BRANCH   5  11
ATOM     11  O   UNL     1       7.064   0.546  -1.120  1.00  0.00    -0.504 OA
ATOM     12  H   UNL     1       7.273   0.240  -2.015  1.00  0.00     0.293 HD
ENDBRANCH   5  11
ENDBRANCH   2   3
ENDBRANCH   1   2
BRANCH   1  13
ATOM     13  C   UNL     1       1.304  -1.526   1.064  1.00  0.00     0.160 C 
BRANCH  13  14
ATOM     14  O   UNL     1       0.723  -2.810   1.254  1.00  0.00    -0.396 OA
ATOM     15  H   UNL     1       1.132  -3.407   0.604  1.00  0.00     0.210 HD
ENDBRANCH  13  14
ENDBRANCH   1  13
BRANCH   1  16
ATOM     16  C   UNL     1      -0.709  -0.954  -0.451  1.00  0.00     0.025 C 
BRANCH  16  17
ATOM     17  C   UNL     1      -1.459  -0.103   0.598  1.00  0.00     0.042 C 
BRANCH  17  18
ATOM     18  C   UNL     1      -2.948  -0.369   0.637  1.00  0.00    -0.044 A 
ATOM     19  C   UNL     1      -3.859   0.583   0.143  1.00  0.00     0.054 A 
ATOM     20  C   UNL     1      -3.429  -1.576   1.167  1.00  0.00     0.008 A 
ATOM     21  C   UNL     1      -5.231   0.327   0.171  1.00  0.00     0.160 A 
ATOM     22  C   UNL     1      -4.797  -1.836   1.198  1.00  0.00     0.050 A 
ATOM     23  C   UNL     1      -5.680  -0.888   0.701  1.00  0.00     0.157 A 
BRANCH  21  24
ATOM     24  O   UNL     1      -6.221   1.162  -0.280  1.00  0.00    -0.493 OA
ATOM     25  C   UNL     1      -5.805   2.413  -0.817  1.00  0.00     0.278 C 
ENDBRANCH  21  24
BRANCH  23  26
ATOM     26  O   UNL     1      -7.019  -1.168   0.741  1.00  0.00    -0.504 OA
ATOM     27  H   UNL     1      -7.451  -0.381   0.356  1.00  0.00     0.293 HD
ENDBRANCH  23  26
ENDBRANCH  17  18
ENDBRANCH  16  17
BRANCH  16  28
ATOM     28  C   UNL     1      -1.146  -0.560  -1.876  1.00  0.00     0.160 C 
BRANCH  28  29
ATOM     29  O   UNL     1      -0.410  -1.285  -2.854  1.00  0.00    -0.396 OA
ATOM     30  H   UNL     1      -0.692  -2.215  -2.789  1.00  0.00     0.210 HD
ENDBRANCH  28  29
ENDBRANCH  16  28
ENDBRANCH   1  16
TORSDOF 13
