REMARK SMILES Cc1cc2c(cc1O)C(=O)c1c(ccc(C)c1O)C2=O
REMARK SMILES IDX 1 1 2 2 3 3 4 4 5 5 6 6 7 7 9 8 10 9 11 10 12 11 19 12 20 13
REMARK SMILES IDX 13 14 14 15 15 16 16 17 17 18 8 19 18 21
REMARK H PARENT 8 20 18 22
ROOT
ATOM      1  C   UNL     1      -5.092   0.872  -0.319  1.00  0.00     0.048 C 
ATOM      2  C   UNL     1      -3.680   0.528   0.057  1.00  0.00    -0.008 A 
ATOM      3  C   UNL     1      -2.638   0.701  -0.865  1.00  0.00     0.020 A 
ATOM      4  C   UNL     1      -1.319   0.380  -0.516  1.00  0.00     0.034 A 
ATOM      5  C   UNL     1      -1.038  -0.115   0.755  1.00  0.00     0.038 A 
ATOM      6  C   UNL     1      -2.069  -0.293   1.685  1.00  0.00     0.059 A 
ATOM      7  C   UNL     1      -3.377   0.029   1.329  1.00  0.00     0.119 A 
ATOM      8  C   UNL     1       0.347  -0.455   1.130  1.00  0.00     0.198 C 
ATOM      9  O   UNL     1       0.598  -0.892   2.250  1.00  0.00    -0.288 OA
ATOM     10  C   UNL     1       1.439  -0.269   0.153  1.00  0.00     0.076 A 
ATOM     11  C   UNL     1       1.152   0.227  -1.118  1.00  0.00     0.037 A 
ATOM     12  C   UNL     1      -0.234   0.569  -1.499  1.00  0.00     0.194 C 
ATOM     13  O   UNL     1      -0.481   1.005  -2.617  1.00  0.00    -0.289 OA
ATOM     14  C   UNL     1       2.181   0.406  -2.050  1.00  0.00     0.013 A 
ATOM     15  C   UNL     1       3.498   0.089  -1.711  1.00  0.00     0.008 A 
ATOM     16  C   UNL     1       3.803  -0.410  -0.439  1.00  0.00    -0.008 A 
ATOM     17  C   UNL     1       5.223  -0.749  -0.081  1.00  0.00     0.048 C 
ATOM     18  C   UNL     1       2.766  -0.586   0.488  1.00  0.00     0.130 A 
ENDROOT
BRANCH   7  19
ATOM     19  O   UNL     1      -4.395  -0.139   2.224  1.00  0.00    -0.508 OA
ATOM     20  H   UNL     1      -4.039  -0.489   3.057  1.00  0.00     0.293 HD
ENDBRANCH   7  19
BRANCH  18  21
ATOM     21  O   UNL     1       3.109  -1.078   1.723  1.00  0.00    -0.507 OA
ATOM     22  H   UNL     1       2.293  -1.150   2.268  1.00  0.00     0.293 HD
ENDBRANCH  18  21
TORSDOF 2
