REMARK SMILES O=C(O)c1cc(O)cc(O)c1
REMARK SMILES IDX 4 1 5 2 6 3 8 4 9 5 11 6 2 7 1 8 3 9 7 11 10 13
REMARK H PARENT 3 10 7 12 10 14
ROOT
ATOM      1  C   UNL     1       0.849  -0.164  -0.017  1.00  0.00     0.067 A 
ATOM      2  C   UNL     1       0.057  -1.224   0.447  1.00  0.00     0.062 A 
ATOM      3  C   UNL     1      -1.251  -0.974   0.851  1.00  0.00     0.120 A 
ATOM      4  C   UNL     1      -1.784   0.310   0.802  1.00  0.00     0.092 A 
ATOM      5  C   UNL     1      -0.990   1.354   0.339  1.00  0.00     0.120 A 
ATOM      6  C   UNL     1       0.321   1.131  -0.071  1.00  0.00     0.062 A 
ENDROOT
BRANCH   1   7
ATOM      7  C   UNL     1       2.236  -0.464  -0.439  1.00  0.00     0.335 C 
ATOM      8  O   UNL     1       2.759  -1.564  -0.419  1.00  0.00    -0.246 OA
BRANCH   7   9
ATOM      9  O   UNL     1       2.903   0.621  -0.866  1.00  0.00    -0.478 OA
ATOM     10  H   UNL     1       3.789   0.280  -1.108  1.00  0.00     0.297 HD
ENDBRANCH   7   9
ENDBRANCH   1   7
BRANCH   3  11
ATOM     11  O   UNL     1      -2.055  -1.975   1.310  1.00  0.00    -0.508 OA
ATOM     12  H   UNL     1      -1.560  -2.812   1.292  1.00  0.00     0.293 HD
ENDBRANCH   3  11
BRANCH   5  13
ATOM     13  O   UNL     1      -1.467   2.630   0.271  1.00  0.00    -0.508 OA
ATOM     14  H   UNL     1      -2.387   2.637   0.586  1.00  0.00     0.293 HD
ENDBRANCH   5  13
TORSDOF 4
