REMARK SMILES CC1CCC2(CC(=O)CC3(CCC4(CCC(C)(C)C4)C3)C2)CC12CCC(OC1OC(C(=O)O)C(O)C(O)C1OC1OC(C(=O)O)C(O)C(O)C1O)C(C)(C)C2C(=O)O
REMARK SMILES IDX 28 1 29 2 30 3 34 4 36 5 38 6 27 7 26 8 16 9 15 10 19 11
REMARK SMILES IDX 14 12 13 13 12 14 20 15 11 16 10 17 9 18 21 19 7 20 5 21
REMARK SMILES IDX 8 22 6 23 4 24 22 25 3 26 23 27 2 28 24 29 55 30 25 31 52 32
REMARK SMILES IDX 17 33 18 34 1 35 53 36 54 37 56 38 57 39 58 40 39 42 40 43
REMARK SMILES IDX 41 44 50 45 42 46 48 47 46 48 51 49 43 51 44 52 45 53 49 55
REMARK SMILES IDX 47 57 31 59 32 60 33 61 37 63 35 65
REMARK H PARENT 58 41 51 50 45 54 49 56 47 58 33 62 37 64 35 66
ROOT
ATOM      1  C   UNL     1       4.044   0.527  -0.065  1.00  0.00     0.283 C 
ATOM      2  O   UNL     1       3.528  -0.723  -0.539  1.00  0.00    -0.332 OA
ATOM      3  C   UNL     1       3.456  -1.724   0.477  1.00  0.00     0.262 C 
ATOM      4  C   UNL     1       4.845  -2.031   1.061  1.00  0.00     0.186 C 
ATOM      5  C   UNL     1       5.414  -0.715   1.626  1.00  0.00     0.180 C 
ATOM      6  C   UNL     1       5.464   0.382   0.542  1.00  0.00     0.209 C 
ENDROOT
BRANCH   1   7
ATOM      7  O   UNL     1       3.173   1.085   0.928  1.00  0.00    -0.346 OA
BRANCH   7   8
ATOM      8  C   UNL     1       2.185   1.995   0.407  1.00  0.00     0.128 C 
ATOM      9  C   UNL     1      -8.559  -1.981  -2.315  1.00  0.00    -0.035 C 
ATOM     10  C   UNL     1      -7.918  -1.215  -3.490  1.00  0.00     0.007 C 
ATOM     11  C   UNL     1      -7.462  -2.039  -1.218  1.00  0.00     0.013 C 
ATOM     12  C   UNL     1      -6.419  -1.351  -3.268  1.00  0.00     0.007 C 
ATOM     13  C   UNL     1      -6.268  -1.222  -1.754  1.00  0.00    -0.029 C 
ATOM     14  C   UNL     1      -6.285   0.232  -1.272  1.00  0.00     0.007 C 
ATOM     15  C   UNL     1      -4.907  -1.697  -1.238  1.00  0.00     0.014 C 
ATOM     16  C   UNL     1      -5.704   0.168   0.137  1.00  0.00     0.008 C 
ATOM     17  C   UNL     1      -4.687  -1.008   0.143  1.00  0.00    -0.022 C 
ATOM     18  C   UNL     1      -5.012  -1.977   1.297  1.00  0.00     0.082 C 
ATOM     19  C   UNL     1      -3.222  -0.487   0.213  1.00  0.00     0.015 C 
ATOM     20  C   UNL     1      -3.781  -2.689   1.790  1.00  0.00     0.134 C 
ATOM     21  C   UNL     1      -2.605  -0.390   1.632  1.00  0.00    -0.022 C 
ATOM     22  O   UNL     1      -3.758  -3.913   1.918  1.00  0.00    -0.300 OA
ATOM     23  C   UNL     1      -2.595  -1.843   2.204  1.00  0.00     0.082 C 
ATOM     24  C   UNL     1      -3.333   0.548   2.617  1.00  0.00     0.008 C 
ATOM     25  C   UNL     1      -1.124   0.080   1.576  1.00  0.00     0.015 C 
ATOM     26  C   UNL     1      -3.114   2.047   2.415  1.00  0.00     0.004 C 
ATOM     27  C   UNL     1      -0.809   1.603   1.245  1.00  0.00    -0.013 C 
ATOM     28  C   UNL     1      -2.147   2.438   1.293  1.00  0.00    -0.007 C 
ATOM     29  C   UNL     1      -0.294   1.661  -0.231  1.00  0.00     0.011 C 
ATOM     30  C   UNL     1       0.379   2.037   2.216  1.00  0.00     0.114 C 
ATOM     31  C   UNL     1       1.145   1.194  -0.392  1.00  0.00     0.033 C 
ATOM     32  C   UNL     1       1.587   2.831   1.595  1.00  0.00     0.005 C 
ATOM     33  C   UNL     1      -9.814  -1.257  -1.814  1.00  0.00     0.011 C 
ATOM     34  C   UNL     1      -8.947  -3.403  -2.751  1.00  0.00     0.011 C 
ATOM     35  C   UNL     1      -2.039   3.966   1.233  1.00  0.00     0.008 C 
ATOM     36  C   UNL     1       1.241   4.245   1.086  1.00  0.00     0.015 C 
ATOM     37  C   UNL     1       2.690   3.038   2.676  1.00  0.00     0.015 C 
BRANCH  30  38
ATOM     38  C   UNL     1      -0.089   2.576   3.562  1.00  0.00     0.307 C 
ATOM     39  O   UNL     1      -0.129   3.735   3.934  1.00  0.00    -0.252 OA
BRANCH  38  40
ATOM     40  O   UNL     1      -0.469   1.595   4.406  1.00  0.00    -0.481 OA
ATOM     41  H   UNL     1      -0.719   2.075   5.224  1.00  0.00     0.296 HD
ENDBRANCH  38  40
ENDBRANCH  30  38
ENDBRANCH   7   8
ENDBRANCH   1   7
BRANCH   6  42
ATOM     42  O   UNL     1       6.374   0.054  -0.514  1.00  0.00    -0.338 OA
BRANCH  42  43
ATOM     43  C   UNL     1       7.737   0.354  -0.259  1.00  0.00     0.283 C 
ATOM     44  O   UNL     1       8.187   1.380  -1.153  1.00  0.00    -0.332 OA
ATOM     45  C   UNL     1       8.603  -0.912  -0.402  1.00  0.00     0.202 C 
ATOM     46  C   UNL     1       8.161   1.010  -2.540  1.00  0.00     0.262 C 
ATOM     47  C   UNL     1       8.548  -1.418  -1.853  1.00  0.00     0.180 C 
ATOM     48  C   UNL     1       8.942  -0.290  -2.820  1.00  0.00     0.186 C 
BRANCH  45  49
ATOM     49  O   UNL     1       9.961  -0.637  -0.017  1.00  0.00    -0.385 OA
ATOM     50  H   UNL     1      10.303   0.021  -0.660  1.00  0.00     0.211 HD
ENDBRANCH  45  49
BRANCH  46  51
ATOM     51  C   UNL     1       6.775   1.064  -3.201  1.00  0.00     0.335 C 
ATOM     52  O   UNL     1       5.786   1.655  -2.788  1.00  0.00    -0.249 OA
BRANCH  51  53
ATOM     53  O   UNL     1       6.726   0.477  -4.415  1.00  0.00    -0.479 OA
ATOM     54  H   UNL     1       5.788   0.580  -4.683  1.00  0.00     0.296 HD
ENDBRANCH  51  53
ENDBRANCH  46  51
BRANCH  47  55
ATOM     55  O   UNL     1       7.273  -1.942  -2.227  1.00  0.00    -0.387 OA
ATOM     56  H   UNL     1       6.715  -2.007  -1.418  1.00  0.00     0.211 HD
ENDBRANCH  47  55
BRANCH  48  57
ATOM     57  O   UNL     1      10.352  -0.010  -2.660  1.00  0.00    -0.387 OA
ATOM     58  H   UNL     1      10.834  -0.790  -2.994  1.00  0.00     0.211 HD
ENDBRANCH  48  57
ENDBRANCH  42  43
ENDBRANCH   6  42
BRANCH   3  59
ATOM     59  C   UNL     1       2.818  -2.989  -0.075  1.00  0.00     0.335 C 
ATOM     60  O   UNL     1       3.346  -4.088  -0.168  1.00  0.00    -0.249 OA
BRANCH  59  61
ATOM     61  O   UNL     1       1.535  -2.814  -0.459  1.00  0.00    -0.479 OA
ATOM     62  H   UNL     1       1.266  -3.683  -0.824  1.00  0.00     0.296 HD
ENDBRANCH  59  61
ENDBRANCH   3  59
BRANCH   5  63
ATOM     63  O   UNL     1       6.689  -0.943   2.236  1.00  0.00    -0.387 OA
ATOM     64  H   UNL     1       6.933  -0.142   2.732  1.00  0.00     0.211 HD
ENDBRANCH   5  63
BRANCH   4  65
ATOM     65  O   UNL     1       5.726  -2.578   0.058  1.00  0.00    -0.387 OA
ATOM     66  H   UNL     1       5.365  -3.462  -0.168  1.00  0.00     0.211 HD
ENDBRANCH   4  65
TORSDOF 15
