REMARK SMILES COc1ccc(C2CC(=O)Cc3c(O)cc(OC4OC(CO)C(O)C(O)C4OC4OC(C)C(O)C(O)C4O)cc3O2)cc1O
REMARK SMILES IDX 40 1 39 2 16 3 15 4 13 5 12 6 11 7 9 8 10 9 14 11 41 13 7 14
REMARK SMILES IDX 8 15 6 17 5 18 42 19 4 20 43 21 3 22 44 23 2 25 1 26 17 27
REMARK SMILES IDX 18 28 19 29 27 30 20 31 25 32 23 33 28 34 29 35 30 36 37 37
REMARK SMILES IDX 31 38 35 39 33 40 32 41 38 42 36 44 34 46 21 48 22 49 26 51
REMARK SMILES IDX 24 53
REMARK H PARENT 14 12 44 24 38 43 36 45 34 47 22 50 26 52 24 54
REMARK Flexibility Score:   99.900
ROOT
ATOM      1  C   UNL     1       2.263   1.217   0.597  1.00  0.00     0.131 A 
ATOM      2  C   UNL     1       0.973   0.689   0.594  1.00  0.00     0.093 A 
ATOM      3  C   UNL     1      -0.114   1.554   0.560  1.00  0.00     0.130 A 
ATOM      4  C   UNL     1       0.080   2.931   0.503  1.00  0.00     0.093 A 
ATOM      5  C   UNL     1       1.377   3.443   0.533  1.00  0.00     0.126 A 
ATOM      6  C   UNL     1       2.495   2.600   0.580  1.00  0.00     0.044 A 
ENDROOT
BRANCH   6   7
ATOM      7  C   UNL     1       3.891   3.172   0.680  1.00  0.00     0.119 C 
BRANCH   7   8
ATOM      8  C   UNL     1       4.986   2.372   0.002  1.00  0.00     0.141 CG0
ATOM      9  O   UNL     1       6.167   2.504   0.334  1.00  0.00    -0.299 OA
ATOM     10  G   UNL     1       4.602   1.457  -1.135  1.00  0.00     0.000 G0
ENDBRANCH   7   8
ENDBRANCH   6   7
BRANCH   5  11
ATOM     11  O   UNL     1       1.569   4.796   0.514  1.00  0.00    -0.507 OA
ATOM     12  H   UNL     1       0.699   5.232   0.507  1.00  0.00     0.293 HD
ENDBRANCH   5  11
BRANCH   1  13
ATOM     13  O   UNL     1       3.308   0.336   0.669  1.00  0.00    -0.485 OA
BRANCH  13  14
ATOM     14  C   UNL     1       3.950   0.175  -0.609  1.00  0.00     0.211 C 
BRANCH  14  15
ATOM     15  C   UNL     1       4.602   1.457  -1.135  1.00  0.00     0.126 CG0
ATOM     16  G   UNL     1       4.986   2.372   0.002  1.00  0.00     0.000 G0
ENDBRANCH  14  15
BRANCH  14  17
ATOM     17  C   UNL     1       4.957  -0.956  -0.461  1.00  0.00    -0.003 A 
ATOM     18  C   UNL     1       4.878  -2.084  -1.292  1.00  0.00     0.011 A 
ATOM     19  C   UNL     1       5.981  -0.902   0.495  1.00  0.00     0.057 A 
ATOM     20  C   UNL     1       5.799  -3.132  -1.174  1.00  0.00     0.051 A 
ATOM     21  C   UNL     1       6.902  -1.947   0.603  1.00  0.00     0.158 A 
ATOM     22  C   UNL     1       6.821  -3.074  -0.225  1.00  0.00     0.160 A 
BRANCH  21  23
ATOM     23  O   UNL     1       7.903  -1.869   1.535  1.00  0.00    -0.504 OA
ATOM     24  H   UNL     1       7.877  -0.991   1.946  1.00  0.00     0.293 HD
ENDBRANCH  21  23
BRANCH  22  25
ATOM     25  O   UNL     1       7.773  -4.040  -0.032  1.00  0.00    -0.493 OA
ATOM     26  C   UNL     1       7.703  -5.200  -0.847  1.00  0.00     0.278 C 
ENDBRANCH  22  25
ENDBRANCH  14  17
ENDBRANCH  13  14
ENDBRANCH   1  13
BRANCH   3  27
ATOM     27  O   UNL     1      -1.364   1.008   0.497  1.00  0.00    -0.462 OA
BRANCH  27  28
ATOM     28  C   UNL     1      -2.124   1.225   1.697  1.00  0.00     0.339 C 
ATOM     29  O   UNL     1      -2.652   2.563   1.789  1.00  0.00    -0.332 OA
ATOM     30  C   UNL     1      -3.228   0.129   1.804  1.00  0.00     0.221 C 
ATOM     31  C   UNL     1      -3.920   2.708   1.139  1.00  0.00     0.179 C 
ATOM     32  C   UNL     1      -4.367   0.711   2.654  1.00  0.00     0.181 C 
ATOM     33  C   UNL     1      -4.983   1.939   1.947  1.00  0.00     0.177 C 
BRANCH  30  34
ATOM     34  O   UNL     1      -3.745  -0.182   0.491  1.00  0.00    -0.337 OA
BRANCH  34  35
ATOM     35  C   UNL     1      -4.126  -1.552   0.347  1.00  0.00     0.282 C 
ATOM     36  O   UNL     1      -2.987  -2.396   0.169  1.00  0.00    -0.344 OA
ATOM     37  C   UNL     1      -5.098  -1.668  -0.843  1.00  0.00     0.202 C 
ATOM     38  C   UNL     1      -2.248  -2.118  -1.030  1.00  0.00     0.150 C 
ATOM     39  C   UNL     1      -4.361  -1.356  -2.144  1.00  0.00     0.179 C 
ATOM     40  C   UNL     1      -3.134  -2.263  -2.276  1.00  0.00     0.174 C 
ATOM     41  C   UNL     1      -1.065  -3.080  -1.069  1.00  0.00     0.041 C 
BRANCH  37  42
ATOM     42  O   UNL     1      -6.210  -0.767  -0.689  1.00  0.00    -0.385 OA
ATOM     43  H   UNL     1      -6.902  -1.087  -1.297  1.00  0.00     0.211 HD
ENDBRANCH  37  42
BRANCH  39  44
ATOM     44  O   UNL     1      -5.230  -1.575  -3.271  1.00  0.00    -0.387 OA
ATOM     45  H   UNL     1      -5.771  -0.768  -3.357  1.00  0.00     0.211 HD
ENDBRANCH  39  44
BRANCH  40  46
ATOM     46  O   UNL     1      -2.420  -1.919  -3.467  1.00  0.00    -0.388 OA
ATOM     47  H   UNL     1      -3.091  -1.914  -4.177  1.00  0.00     0.211 HD
ENDBRANCH  40  46
ENDBRANCH  34  35
ENDBRANCH  30  34
BRANCH  31  48
ATOM     48  C   UNL     1      -4.277   4.199   1.062  1.00  0.00     0.191 C 
BRANCH  48  49
ATOM     49  O   UNL     1      -3.375   4.881   0.187  1.00  0.00    -0.394 OA
ATOM     50  H   UNL     1      -3.660   5.810   0.163  1.00  0.00     0.210 HD
ENDBRANCH  48  49
ENDBRANCH  31  48
BRANCH  32  51
ATOM     51  O   UNL     1      -5.381  -0.263   2.928  1.00  0.00    -0.387 OA
ATOM     52  H   UNL     1      -6.179   0.027   2.437  1.00  0.00     0.211 HD
ENDBRANCH  32  51
BRANCH  33  53
ATOM     53  O   UNL     1      -6.076   1.535   1.109  1.00  0.00    -0.387 OA
ATOM     54  H   UNL     1      -5.737   0.882   0.456  1.00  0.00     0.211 HD
ENDBRANCH  33  53
ENDBRANCH  27  28
ENDBRANCH   3  27
TORSDOF 15
