REMARK SMILES O=c1c(-c2ccc(O)cc2)coc2cc(O)c(C3OC(CO)C(O)C(O)C3O)cc12
REMARK SMILES IDX 1 1 2 2 3 3 11 4 12 5 13 6 14 7 15 8 17 9 29 10 30 11 4 12
REMARK SMILES IDX 5 13 10 14 6 15 9 16 7 17 8 18 18 20 19 21 27 22 20 23 25 24
REMARK SMILES IDX 23 25 28 26 21 28 22 29 26 31 24 33 16 35
REMARK H PARENT 8 19 28 27 22 30 26 32 24 34 16 36
ROOT
ATOM      1  O   UNL     1       2.035  -1.072   0.614  1.00  0.00    -0.288 OA
ATOM      2  C   UNL     1       2.222   0.103   0.322  1.00  0.00     0.200 C 
ATOM      3  C   UNL     1       3.583   0.706   0.234  1.00  0.00     0.065 C 
ATOM      4  C   UNL     1       3.653   2.003  -0.106  1.00  0.00     0.208 C 
ATOM      5  O   UNL     1       2.601   2.847  -0.367  1.00  0.00    -0.463 OA
ATOM      6  C   UNL     1       1.335   2.328  -0.289  1.00  0.00     0.141 A 
ATOM      7  C   UNL     1       0.277   3.194  -0.562  1.00  0.00     0.094 A 
ATOM      8  C   UNL     1      -1.033   2.718  -0.501  1.00  0.00     0.125 A 
ATOM      9  C   UNL     1      -1.313   1.385  -0.167  1.00  0.00     0.026 A 
ATOM     10  C   UNL     1      -0.232   0.526   0.100  1.00  0.00     0.026 A 
ATOM     11  C   UNL     1       1.084   1.000   0.040  1.00  0.00     0.066 A 
ENDROOT
BRANCH   3  12
ATOM     12  C   UNL     1       4.812  -0.076   0.471  1.00  0.00    -0.011 A 
ATOM     13  C   UNL     1       5.825   0.407   1.316  1.00  0.00     0.013 A 
ATOM     14  C   UNL     1       4.992  -1.325  -0.143  1.00  0.00     0.013 A 
ATOM     15  C   UNL     1       6.990  -0.336   1.529  1.00  0.00     0.047 A 
ATOM     16  C   UNL     1       6.155  -2.070   0.072  1.00  0.00     0.047 A 
ATOM     17  C   UNL     1       7.145  -1.567   0.906  1.00  0.00     0.115 A 
BRANCH  17  18
ATOM     18  O   UNL     1       8.294  -2.259   1.145  1.00  0.00    -0.508 OA
ATOM     19  H   UNL     1       8.243  -3.111   0.680  1.00  0.00     0.293 HD
ENDBRANCH  17  18
ENDBRANCH   3  12
BRANCH   9  20
ATOM     20  C   UNL     1      -2.748   0.889  -0.130  1.00  0.00     0.184 C 
ATOM     21  O   UNL     1      -2.840  -0.298   0.678  1.00  0.00    -0.362 OA
ATOM     22  C   UNL     1      -3.303   0.613  -1.543  1.00  0.00     0.179 C 
ATOM     23  C   UNL     1      -4.201  -0.719   0.878  1.00  0.00     0.176 C 
ATOM     24  C   UNL     1      -4.750   0.101  -1.437  1.00  0.00     0.177 C 
ATOM     25  C   UNL     1      -4.860  -1.084  -0.464  1.00  0.00     0.177 C 
BRANCH  22  26
ATOM     26  O   UNL     1      -2.537  -0.394  -2.240  1.00  0.00    -0.387 OA
ATOM     27  H   UNL     1      -2.506  -1.171  -1.639  1.00  0.00     0.211 HD
ENDBRANCH  22  26
BRANCH  23  28
ATOM     28  C   UNL     1      -4.199  -1.896   1.857  1.00  0.00     0.191 C 
BRANCH  28  29
ATOM     29  O   UNL     1      -5.531  -2.236   2.229  1.00  0.00    -0.394 OA
ATOM     30  H   UNL     1      -5.466  -3.029   2.790  1.00  0.00     0.210 HD
ENDBRANCH  28  29
ENDBRANCH  23  28
BRANCH  24  31
ATOM     31  O   UNL     1      -5.203  -0.322  -2.735  1.00  0.00    -0.387 OA
ATOM     32  H   UNL     1      -4.387  -0.532  -3.237  1.00  0.00     0.211 HD
ENDBRANCH  24  31
BRANCH  25  33
ATOM     33  O   UNL     1      -4.202  -2.221  -1.055  1.00  0.00    -0.388 OA
ATOM     34  H   UNL     1      -4.699  -2.398  -1.878  1.00  0.00     0.211 HD
ENDBRANCH  25  33
ENDBRANCH   9  20
BRANCH   8  35
ATOM     35  O   UNL     1      -2.079   3.557  -0.773  1.00  0.00    -0.507 OA
ATOM     36  H   UNL     1      -1.729   4.435  -1.002  1.00  0.00     0.293 HD
ENDBRANCH   8  35
TORSDOF 9
