REMARK SMILES CCc1ccc(O)c(Cc2c(C)cccc2O)c1
REMARK SMILES IDX 9 1 10 2 11 3 13 4 14 5 16 6 15 7 12 8 17 9 8 11 18 12 6 13
REMARK SMILES IDX 3 14 5 15 4 16 7 17 2 19 1 20
REMARK H PARENT 17 10 7 18
ROOT
ATOM      1  C   UNL     1      -0.497  -1.297  -0.320  1.00  0.00     0.079 C 
ENDROOT
BRANCH   1   2
ATOM      2  C   UNL     1      -1.829  -0.805   0.228  1.00  0.00     0.001 A 
ATOM      3  C   UNL     1      -3.022  -0.863  -0.535  1.00  0.00    -0.044 A 
ATOM      4  C   UNL     1      -4.220  -0.364   0.009  1.00  0.00     0.004 A 
ATOM      5  C   UNL     1      -4.261   0.161   1.299  1.00  0.00     0.004 A 
ATOM      6  C   UNL     1      -1.910  -0.304   1.540  1.00  0.00     0.119 A 
ATOM      7  C   UNL     1      -3.106   0.182   2.071  1.00  0.00     0.046 A 
ATOM      8  C   UNL     1      -3.070  -1.460  -1.916  1.00  0.00     0.045 C 
BRANCH   6   9
ATOM      9  O   UNL     1      -0.797  -0.323   2.336  1.00  0.00    -0.508 OA
ATOM     10  H   UNL     1      -0.981   0.193   3.137  1.00  0.00     0.293 HD
ENDBRANCH   6   9
ENDBRANCH   1   2
BRANCH   1  11
ATOM     11  C   UNL     1       0.573  -0.236  -0.508  1.00  0.00    -0.001 A 
ATOM     12  C   UNL     1       1.631  -0.148   0.415  1.00  0.00     0.011 A 
ATOM     13  C   UNL     1       0.559   0.663  -1.578  1.00  0.00     0.119 A 
ATOM     14  C   UNL     1       2.640   0.818   0.287  1.00  0.00    -0.048 A 
ATOM     15  C   UNL     1       1.558   1.627  -1.724  1.00  0.00     0.047 A 
ATOM     16  C   UNL     1       2.596   1.703  -0.795  1.00  0.00     0.007 A 
BRANCH  13  17
ATOM     17  O   UNL     1      -0.437   0.584  -2.507  1.00  0.00    -0.508 OA
ATOM     18  H   UNL     1      -0.368   1.348  -3.101  1.00  0.00     0.293 HD
ENDBRANCH  13  17
BRANCH  14  19
ATOM     19  C   UNL     1       3.766   0.882   1.286  1.00  0.00     0.032 C 
ATOM     20  C   UNL     1       4.925  -0.019   0.889  1.00  0.00     0.009 C 
ENDBRANCH  14  19
ENDBRANCH   1  11
TORSDOF 5
