REMARK SMILES O=C1c2ccc(O)cc2C(=O)c2cc(CO)ccc21
REMARK SMILES IDX 14 1 17 2 18 3 19 4 12 5 13 6 10 7 11 8 9 9 8 10 6 11 5 12
REMARK SMILES IDX 4 13 3 14 2 15 1 16 15 17 16 18 7 20
REMARK H PARENT 16 19 7 21
ROOT
ATOM      1  C   UNL     1       3.075   0.398  -0.003  1.00  0.00    -0.022 A 
ATOM      2  C   UNL     1       3.058  -1.002   0.078  1.00  0.00     0.007 A 
ATOM      3  C   UNL     1       1.849  -1.700   0.143  1.00  0.00     0.013 A 
ATOM      4  C   UNL     1       0.637  -1.003   0.137  1.00  0.00     0.034 A 
ATOM      5  C   UNL     1       0.639   0.389   0.071  1.00  0.00     0.034 A 
ATOM      6  C   UNL     1       1.853   1.088   0.006  1.00  0.00     0.019 A 
ATOM      7  C   UNL     1      -0.633   1.138   0.072  1.00  0.00     0.194 C 
ATOM      8  O   UNL     1      -0.634   2.363   0.028  1.00  0.00    -0.289 OA
ATOM      9  C   UNL     1      -1.908   0.395   0.129  1.00  0.00     0.037 A 
ATOM     10  C   UNL     1      -3.118   1.102   0.118  1.00  0.00     0.059 A 
ATOM     11  C   UNL     1      -4.317   0.399   0.173  1.00  0.00     0.116 A 
ATOM     12  C   UNL     1      -4.329  -0.990   0.237  1.00  0.00     0.047 A 
ATOM     13  C   UNL     1      -3.124  -1.693   0.248  1.00  0.00     0.017 A 
ATOM     14  C   UNL     1      -1.909  -0.999   0.193  1.00  0.00     0.034 A 
ATOM     15  C   UNL     1      -0.636  -1.748   0.206  1.00  0.00     0.194 C 
ATOM     16  O   UNL     1      -0.638  -2.971   0.274  1.00  0.00    -0.289 OA
ENDROOT
BRANCH   1  17
ATOM     17  C   UNL     1       4.372   1.165  -0.038  1.00  0.00     0.191 C 
BRANCH  17  18
ATOM     18  O   UNL     1       5.354   0.447  -0.772  1.00  0.00    -0.392 OA
ATOM     19  H   UNL     1       6.150   1.005  -0.792  1.00  0.00     0.211 HD
ENDBRANCH  17  18
ENDBRANCH   1  17
BRANCH  11  20
ATOM     20  O   UNL     1      -5.518   1.043   0.165  1.00  0.00    -0.508 OA
ATOM     21  H   UNL     1      -5.366   2.002   0.115  1.00  0.00     0.293 HD
ENDBRANCH  11  20
TORSDOF 3
