REMARK SMILES OC[C@H]1O[C@@H](Oc2cc3ccc2=CC=C(O)C=CC=C(O)C=3)[C@H](O)[C@@H](O)[C@@H]1O
REMARK SMILES IDX 7 1 8 2 9 3 10 4 11 5 12 6 13 7 22 8 6 10 5 11 3 12 4 13
REMARK SMILES IDX 27 14 25 15 23 16 2 17 1 18 28 20 26 22 24 24 14 26 15 27
REMARK SMILES IDX 16 28 17 30 18 31 19 32 20 33 21 35
REMARK H PARENT 1 19 28 21 26 23 24 25 16 29 21 36
REMARK Flexibility Score:   22.900
ROOT
ATOM      1  C   UNL     1       0.247  -0.434   0.289  1.00  0.00     0.130 C 
ATOM      2  C   UNL     1       0.672   0.786   0.713  1.00  0.00     0.055 C 
ATOM      3  C   UNL     1       1.998   0.813   1.363  1.00  0.00    -0.018 C 
ATOM      4  C   UNL     1       2.323  -0.316   2.245  1.00  0.00     0.009 C 
ATOM      5  C   UNL     1       1.906  -1.523   1.832  1.00  0.00     0.012 C 
ATOM      6  C   UNL     1       1.181  -1.556   0.551  1.00  0.00     0.017 C 
ATOM      7  C   UNL     1       1.621  -2.331  -0.462  1.00  0.00     0.016 C 
ATOM      8  C   UNL     1       2.966   1.614   0.874  1.00  0.00     0.054 CG0
ATOM      9  G   UNL     1       4.377   1.290   1.015  1.00  0.00     0.000 G0
ENDROOT
BRANCH   1  10
ATOM     10  O   UNL     1      -0.898  -0.768  -0.382  1.00  0.00    -0.461 OA
BRANCH  10  11
ATOM     11  C   UNL     1      -1.781   0.291  -0.771  1.00  0.00     0.339 C 
ATOM     12  C   UNL     1      -3.624   1.541   0.062  1.00  0.00     0.179 C 
ATOM     13  O   UNL     1      -2.386   0.909   0.372  1.00  0.00    -0.332 OA
ATOM     14  C   UNL     1      -4.700   0.490  -0.290  1.00  0.00     0.177 C 
ATOM     15  C   UNL     1      -4.103  -0.725  -1.031  1.00  0.00     0.180 C 
ATOM     16  C   UNL     1      -2.815  -0.325  -1.761  1.00  0.00     0.214 C 
BRANCH  12  17
ATOM     17  C   UNL     1      -4.081   2.399   1.250  1.00  0.00     0.191 C 
BRANCH  17  18
ATOM     18  O   UNL     1      -5.197   3.218   0.913  1.00  0.00    -0.394 OA
ATOM     19  H   UNL     1      -5.841   2.658   0.432  1.00  0.00     0.210 HD
ENDBRANCH  17  18
ENDBRANCH  12  17
BRANCH  14  20
ATOM     20  O   UNL     1      -5.714   1.130  -1.083  1.00  0.00    -0.387 OA
ATOM     21  H   UNL     1      -5.326   1.277  -1.969  1.00  0.00     0.211 HD
ENDBRANCH  14  20
BRANCH  15  22
ATOM     22  O   UNL     1      -3.870  -1.789  -0.107  1.00  0.00    -0.387 OA
ATOM     23  H   UNL     1      -3.490  -2.542  -0.591  1.00  0.00     0.211 HD
ENDBRANCH  15  22
BRANCH  16  24
ATOM     24  O   UNL     1      -3.175   0.617  -2.793  1.00  0.00    -0.384 OA
ATOM     25  H   UNL     1      -2.391   0.735  -3.362  1.00  0.00     0.211 HD
ENDBRANCH  16  24
ENDBRANCH  10  11
ENDBRANCH   1  10
BRANCH   7  26
ATOM     26  C   UNL     1       2.926  -2.977  -0.416  1.00  0.00     0.047 C 
ATOM     27  C   UNL     1       4.062  -2.373  -0.822  1.00  0.00     0.115 C 
BRANCH  27  28
ATOM     28  O   UNL     1       5.299  -2.960  -0.682  1.00  0.00    -0.508 OA
ATOM     29  H   UNL     1       5.199  -3.750  -0.127  1.00  0.00     0.293 HD
ENDBRANCH  27  28
BRANCH  27  30
ATOM     30  C   UNL     1       4.113  -1.118  -1.542  1.00  0.00     0.046 C 
ATOM     31  C   UNL     1       4.541   0.093  -1.149  1.00  0.00     0.008 C 
BRANCH  31  32
ATOM     32  C   UNL     1       5.051   0.526   0.137  1.00  0.00     0.046 C 
ATOM     33  C   UNL     1       4.377   1.290   1.015  1.00  0.00     0.116 CG0
ATOM     34  G   UNL     1       2.966   1.614   0.874  1.00  0.00     0.000 G0
BRANCH  33  35
ATOM     35  O   UNL     1       4.981   1.732   2.172  1.00  0.00    -0.508 OA
ATOM     36  H   UNL     1       4.308   2.198   2.696  1.00  0.00     0.293 HD
ENDBRANCH  33  35
ENDBRANCH  31  32
ENDBRANCH  27  30
ENDBRANCH   7  26
TORSDOF 9
