REMARK SMILES COC(=O)C1=COC(OC2OC(CO)C(O)C(O)C2O)=C(CO)C1
REMARK SMILES IDX 9 1 8 2 5 3 6 4 24 5 7 6 21 7 3 8 4 9 2 10 1 11 22 12 23 13
REMARK SMILES IDX 10 15 11 16 19 17 12 18 17 19 15 20 20 21 13 23 14 24 18 26
REMARK SMILES IDX 16 28
REMARK H PARENT 23 14 20 22 14 25 18 27 16 29
ROOT
ATOM      1  O   UNL     1      -0.269  -1.362   0.407  1.00  0.00    -0.432 OA
ENDROOT
BRANCH   1   2
ATOM      2  C   UNL     1       0.913  -0.698   0.139  1.00  0.00     0.288 C 
ATOM      3  C   UNL     1       3.328   0.531  -0.570  1.00  0.00     0.077 C 
ATOM      4  C   UNL     1       2.422   0.178  -1.490  1.00  0.00     0.211 C 
ATOM      5  C   UNL     1       3.080   0.286   0.886  1.00  0.00     0.087 C 
ATOM      6  O   UNL     1       1.223  -0.427  -1.192  1.00  0.00    -0.434 OA
ATOM      7  C   UNL     1       1.753  -0.395   1.148  1.00  0.00     0.041 C 
BRANCH   3   8
ATOM      8  C   UNL     1       4.576   1.174  -1.030  1.00  0.00     0.337 C 
ATOM      9  O   UNL     1       4.835   1.414  -2.200  1.00  0.00    -0.246 OA
BRANCH   8  10
ATOM     10  O   UNL     1       5.379   1.447   0.029  1.00  0.00    -0.466 OA
ATOM     11  C   UNL     1       6.611   2.077  -0.324  1.00  0.00     0.282 C 
ENDBRANCH   8  10
ENDBRANCH   3   8
BRANCH   7  12
ATOM     12  C   UNL     1       1.461  -0.715   2.583  1.00  0.00     0.195 C 
BRANCH  12  13
ATOM     13  O   UNL     1       1.557   0.478   3.348  1.00  0.00    -0.392 OA
ATOM     14  H   UNL     1       1.243   0.260   4.242  1.00  0.00     0.211 HD
ENDBRANCH  12  13
ENDBRANCH   7  12
ENDBRANCH   1   2
BRANCH   1  15
ATOM     15  C   UNL     1      -1.408  -0.808  -0.277  1.00  0.00     0.342 C 
ATOM     16  O   UNL     1      -2.410  -0.519   0.710  1.00  0.00    -0.332 OA
ATOM     17  C   UNL     1      -1.909  -1.862  -1.292  1.00  0.00     0.214 C 
ATOM     18  C   UNL     1      -3.607   0.015   0.113  1.00  0.00     0.179 C 
ATOM     19  C   UNL     1      -3.246  -1.430  -1.905  1.00  0.00     0.180 C 
ATOM     20  C   UNL     1      -4.247  -1.038  -0.817  1.00  0.00     0.177 C 
BRANCH  17  21
ATOM     21  O   UNL     1      -0.972  -2.047  -2.372  1.00  0.00    -0.384 OA
ATOM     22  H   UNL     1      -0.110  -2.238  -1.954  1.00  0.00     0.211 HD
ENDBRANCH  17  21
BRANCH  18  23
ATOM     23  C   UNL     1      -4.537   0.418   1.263  1.00  0.00     0.191 C 
BRANCH  23  24
ATOM     24  O   UNL     1      -4.817  -0.714   2.091  1.00  0.00    -0.394 OA
ATOM     25  H   UNL     1      -3.939  -1.026   2.394  1.00  0.00     0.210 HD
ENDBRANCH  23  24
ENDBRANCH  18  23
BRANCH  19  26
ATOM     26  O   UNL     1      -3.023  -0.321  -2.791  1.00  0.00    -0.387 OA
ATOM     27  H   UNL     1      -2.296  -0.620  -3.377  1.00  0.00     0.211 HD
ENDBRANCH  19  26
BRANCH  20  28
ATOM     28  O   UNL     1      -4.620  -2.227  -0.109  1.00  0.00    -0.387 OA
ATOM     29  H   UNL     1      -5.064  -1.944   0.718  1.00  0.00     0.211 HD
ENDBRANCH  20  28
ENDBRANCH   1  15
TORSDOF 11
