REMARK SMILES Oc1ccc(/C=C/c2cc(O)cc(O)c2)cc1
REMARK SMILES IDX 6 1 7 2 5 3 2 4 3 5 17 6 4 7 16 8 1 9 8 11 9 12 15 13 10 14
REMARK SMILES IDX 13 15 12 16 11 17 14 19
REMARK H PARENT 1 10 11 18 14 20
ROOT
ATOM      1  C   UNL     1      -0.575  -0.396  -0.420  1.00  0.00     0.009 C 
ATOM      2  C   UNL     1       0.342   0.281   0.289  1.00  0.00     0.009 C 
ENDROOT
BRANCH   1   3
ATOM      3  C   UNL     1      -2.017  -0.358  -0.141  1.00  0.00    -0.025 A 
ATOM      4  C   UNL     1      -4.779  -0.351   0.307  1.00  0.00     0.115 A 
ATOM      5  C   UNL     1      -4.144  -1.530  -0.061  1.00  0.00     0.047 A 
ATOM      6  C   UNL     1      -4.059   0.830   0.447  1.00  0.00     0.047 A 
ATOM      7  C   UNL     1      -2.766  -1.532  -0.291  1.00  0.00     0.012 A 
ATOM      8  C   UNL     1      -2.679   0.826   0.217  1.00  0.00     0.012 A 
BRANCH   4   9
ATOM      9  O   UNL     1      -6.125  -0.393   0.520  1.00  0.00    -0.508 OA
ATOM     10  H   UNL     1      -6.427   0.495   0.769  1.00  0.00     0.293 HD
ENDBRANCH   4   9
ENDBRANCH   1   3
BRANCH   2  11
ATOM     11  C   UNL     1       1.785   0.236   0.009  1.00  0.00    -0.018 A 
ATOM     12  C   UNL     1       2.437  -0.950  -0.355  1.00  0.00     0.054 A 
ATOM     13  C   UNL     1       2.542   1.406   0.163  1.00  0.00     0.054 A 
ATOM     14  C   UNL     1       3.811  -0.952  -0.584  1.00  0.00     0.119 A 
ATOM     15  C   UNL     1       3.916   1.383  -0.072  1.00  0.00     0.119 A 
ATOM     16  C   UNL     1       4.560   0.210  -0.448  1.00  0.00     0.092 A 
BRANCH  14  17
ATOM     17  O   UNL     1       4.393  -2.133  -0.941  1.00  0.00    -0.508 OA
ATOM     18  H   UNL     1       5.346  -1.983  -1.061  1.00  0.00     0.293 HD
ENDBRANCH  14  17
BRANCH  15  19
ATOM     19  O   UNL     1       4.678   2.507   0.059  1.00  0.00    -0.508 OA
ATOM     20  H   UNL     1       4.102   3.247   0.315  1.00  0.00     0.293 HD
ENDBRANCH  15  19
ENDBRANCH   2  11
TORSDOF 5
