REMARK SMILES O=c1ccc2cc(O)ccc2o1
REMARK SMILES IDX 8 1 7 3 1 4 2 5 12 6 3 7 11 8 4 9 10 10 5 11 9 12 6 13
REMARK H PARENT 8 2
ROOT
ATOM      1  O   UNL     1      -3.517  -0.090  -0.190  1.00  0.00    -0.508 OA
ATOM      2  H   UNL     1      -3.664  -1.011   0.080  1.00  0.00     0.293 HD
ENDROOT
BRANCH   1   3
ATOM      3  C   UNL     1      -2.178   0.171  -0.179  1.00  0.00     0.116 A 
ATOM      4  O   UNL     1       4.050   0.527   0.133  1.00  0.00    -0.246 OA
ATOM      5  C   UNL     1       2.859   0.239   0.140  1.00  0.00     0.336 C 
ATOM      6  O   UNL     1       1.871   1.152  -0.204  1.00  0.00    -0.423 OA
ATOM      7  C   UNL     1       2.415  -1.114   0.521  1.00  0.00     0.094 C 
ATOM      8  C   UNL     1       0.509   0.791  -0.186  1.00  0.00     0.138 A 
ATOM      9  C   UNL     1       1.127  -1.469   0.542  1.00  0.00     0.019 C 
ATOM     10  C   UNL     1      -0.414   1.770  -0.545  1.00  0.00     0.052 A 
ATOM     11  C   UNL     1       0.110  -0.495   0.178  1.00  0.00     0.021 A 
ATOM     12  C   UNL     1      -1.771   1.453  -0.540  1.00  0.00     0.050 A 
ATOM     13  C   UNL     1      -1.252  -0.808   0.181  1.00  0.00     0.058 A 
ENDBRANCH   1   3
TORSDOF 1
