REMARK SMILES OC[C@H]1O[C@@H](OCCc2ccc(O)cc2)[C@H](O)[C@@H](O)[C@@H]1O
REMARK SMILES IDX 6 1 5 2 3 3 4 4 20 5 18 6 16 7 2 8 1 9 21 11 19 13 17 15
REMARK SMILES IDX 7 17 8 18 9 19 10 20 15 21 11 22 14 23 12 24 13 25
REMARK H PARENT 1 10 21 12 19 14 17 16 13 26
ROOT
ATOM      1  O   UNL     1      -0.219   0.640  -1.098  1.00  0.00    -0.350 OA
ENDROOT
BRANCH   1   2
ATOM      2  C   UNL     1      -1.105   1.003  -0.032  1.00  0.00     0.281 C 
ATOM      3  C   UNL     1      -2.551   0.170   1.658  1.00  0.00     0.178 C 
ATOM      4  O   UNL     1      -1.654  -0.159   0.588  1.00  0.00    -0.341 OA
ATOM      5  C   UNL     1      -3.752   0.966   1.121  1.00  0.00     0.177 C 
ATOM      6  C   UNL     1      -3.251   2.223   0.408  1.00  0.00     0.179 C 
ATOM      7  C   UNL     1      -2.224   1.856  -0.659  1.00  0.00     0.202 C 
BRANCH   3   8
ATOM      8  C   UNL     1      -3.010  -1.124   2.345  1.00  0.00     0.191 C 
BRANCH   8   9
ATOM      9  O   UNL     1      -3.736  -0.863   3.542  1.00  0.00    -0.394 OA
ATOM     10  H   UNL     1      -4.359  -0.131   3.344  1.00  0.00     0.210 HD
ENDBRANCH   8   9
ENDBRANCH   3   8
BRANCH   5  11
ATOM     11  O   UNL     1      -4.646   1.337   2.176  1.00  0.00    -0.387 OA
ATOM     12  H   UNL     1      -5.250   1.997   1.774  1.00  0.00     0.211 HD
ENDBRANCH   5  11
BRANCH   6  13
ATOM     13  O   UNL     1      -4.370   2.902  -0.182  1.00  0.00    -0.387 OA
ATOM     14  H   UNL     1      -3.977   3.582  -0.768  1.00  0.00     0.211 HD
ENDBRANCH   6  13
BRANCH   7  15
ATOM     15  O   UNL     1      -1.705   3.063  -1.239  1.00  0.00    -0.385 OA
ATOM     16  H   UNL     1      -0.987   2.771  -1.837  1.00  0.00     0.211 HD
ENDBRANCH   7  15
ENDBRANCH   1   2
BRANCH   1  17
ATOM     17  C   UNL     1       0.942  -0.042  -0.617  1.00  0.00     0.168 C 
BRANCH  17  18
ATOM     18  C   UNL     1       1.833  -0.380  -1.810  1.00  0.00     0.064 C 
BRANCH  18  19
ATOM     19  C   UNL     1       3.105  -1.069  -1.391  1.00  0.00    -0.045 A 
ATOM     20  C   UNL     1       4.275  -0.329  -1.167  1.00  0.00     0.007 A 
ATOM     21  C   UNL     1       3.127  -2.457  -1.193  1.00  0.00     0.007 A 
ATOM     22  C   UNL     1       5.450  -0.966  -0.759  1.00  0.00     0.046 A 
ATOM     23  C   UNL     1       4.301  -3.093  -0.785  1.00  0.00     0.046 A 
ATOM     24  C   UNL     1       5.452  -2.344  -0.572  1.00  0.00     0.115 A 
BRANCH  24  25
ATOM     25  O   UNL     1       6.575  -3.007  -0.175  1.00  0.00    -0.508 OA
ATOM     26  H   UNL     1       7.295  -2.363  -0.075  1.00  0.00     0.293 HD
ENDBRANCH  24  25
ENDBRANCH  18  19
ENDBRANCH  17  18
ENDBRANCH   1  17
TORSDOF 10
