REMARK SMILES Cc1cccc(O)c1Cc1cccc(O)c1C
REMARK SMILES IDX 9 1 8 2 2 3 3 4 4 5 6 6 5 7 1 8 7 9 10 11 11 12 16 13 12 14
REMARK SMILES IDX 14 15 13 16 17 17 15 18
REMARK H PARENT 7 10 15 19
ROOT
ATOM      1  C   UNL     1       0.013  -1.077   0.591  1.00  0.00     0.075 C 
ENDROOT
BRANCH   1   2
ATOM      2  C   UNL     1       1.424  -0.513   0.502  1.00  0.00     0.001 A 
ATOM      3  C   UNL     1       1.720   0.810   0.909  1.00  0.00    -0.044 A 
ATOM      4  C   UNL     1       3.036   1.291   0.792  1.00  0.00     0.004 A 
ATOM      5  C   UNL     1       4.055   0.479   0.299  1.00  0.00     0.004 A 
ATOM      6  C   UNL     1       2.471  -1.310   0.008  1.00  0.00     0.119 A 
ATOM      7  C   UNL     1       3.775  -0.825  -0.093  1.00  0.00     0.046 A 
ATOM      8  C   UNL     1       0.661   1.744   1.432  1.00  0.00     0.045 C 
BRANCH   6   9
ATOM      9  O   UNL     1       2.202  -2.591  -0.391  1.00  0.00    -0.508 OA
ATOM     10  H   UNL     1       3.023  -3.002  -0.706  1.00  0.00     0.293 HD
ENDBRANCH   6   9
ENDBRANCH   1   2
BRANCH   1  11
ATOM     11  C   UNL     1      -0.992  -0.505  -0.402  1.00  0.00    -0.037 A 
ATOM     12  C   UNL     1      -0.596  -0.326  -1.743  1.00  0.00     0.004 A 
ATOM     13  C   UNL     1      -2.330  -0.205  -0.035  1.00  0.00    -0.006 A 
ATOM     14  C   UNL     1      -1.471   0.196  -2.693  1.00  0.00     0.004 A 
ATOM     15  C   UNL     1      -3.176   0.365  -1.003  1.00  0.00     0.118 A 
ATOM     16  C   UNL     1      -2.760   0.551  -2.319  1.00  0.00     0.046 A 
ATOM     17  C   UNL     1      -2.826  -0.477   1.361  1.00  0.00     0.049 C 
BRANCH  15  18
ATOM     18  O   UNL     1      -4.452   0.775  -0.729  1.00  0.00    -0.508 OA
ATOM     19  H   UNL     1      -4.523   0.952   0.221  1.00  0.00     0.293 HD
ENDBRANCH  15  18
ENDBRANCH   1  11
TORSDOF 4
