REMARK SMILES O=C(O)c1cc(O)c2c(c1)C(=O)c1cc(O)ccc1C2=O
REMARK SMILES IDX 4 1 5 2 6 3 8 4 9 5 10 6 11 7 12 8 13 9 14 10 15 11 17 12
REMARK SMILES IDX 18 13 19 14 20 15 21 16 2 17 1 18 3 19 7 21 16 23
REMARK H PARENT 3 20 7 22 16 24
ROOT
ATOM      1  C   UNL     1       3.273  -0.206  -0.377  1.00  0.00     0.064 A 
ATOM      2  C   UNL     1       2.875  -0.957  -1.488  1.00  0.00     0.062 A 
ATOM      3  C   UNL     1       1.520  -1.166  -1.738  1.00  0.00     0.128 A 
ATOM      4  C   UNL     1       0.544  -0.632  -0.887  1.00  0.00     0.076 A 
ATOM      5  C   UNL     1       0.941   0.117   0.221  1.00  0.00     0.038 A 
ATOM      6  C   UNL     1       2.304   0.332   0.479  1.00  0.00     0.029 A 
ATOM      7  C   UNL     1      -0.067   0.693   1.136  1.00  0.00     0.194 C 
ATOM      8  O   UNL     1       0.287   1.349   2.107  1.00  0.00    -0.289 OA
ATOM      9  C   UNL     1      -1.501   0.468   0.867  1.00  0.00     0.037 A 
ATOM     10  C   UNL     1      -2.463   1.008   1.727  1.00  0.00     0.059 A 
ATOM     11  C   UNL     1      -3.813   0.794   1.468  1.00  0.00     0.116 A 
ATOM     12  C   UNL     1      -4.222   0.049   0.367  1.00  0.00     0.047 A 
ATOM     13  C   UNL     1      -3.262  -0.491  -0.491  1.00  0.00     0.017 A 
ATOM     14  C   UNL     1      -1.899  -0.280  -0.240  1.00  0.00     0.034 A 
ATOM     15  C   UNL     1      -0.891  -0.853  -1.151  1.00  0.00     0.198 C 
ATOM     16  O   UNL     1      -1.232  -1.513  -2.129  1.00  0.00    -0.288 OA
ENDROOT
BRANCH   1  17
ATOM     17  C   UNL     1       4.725  -0.007  -0.148  1.00  0.00     0.335 C 
ATOM     18  O   UNL     1       5.622  -0.442  -0.845  1.00  0.00    -0.246 OA
BRANCH  17  19
ATOM     19  O   UNL     1       4.979   0.728   0.947  1.00  0.00    -0.478 OA
ATOM     20  H   UNL     1       5.957   0.781   0.980  1.00  0.00     0.297 HD
ENDBRANCH  17  19
ENDBRANCH   1  17
BRANCH   3  21
ATOM     21  O   UNL     1       1.218  -1.911  -2.846  1.00  0.00    -0.507 OA
ATOM     22  H   UNL     1       0.238  -1.988  -2.914  1.00  0.00     0.293 HD
ENDBRANCH   3  21
BRANCH  11  23
ATOM     23  O   UNL     1      -4.716   1.338   2.331  1.00  0.00    -0.508 OA
ATOM     24  H   UNL     1      -5.616   1.115   2.039  1.00  0.00     0.293 HD
ENDBRANCH  11  23
TORSDOF 4
