REMARK SMILES CC1OC(OC2C(Oc3cc(O)c4c(=O)c(O)c(-c5ccc(O)c(O)c5)oc4c3)OC(CO)C(O)C2O)C(O)C(O)C1O
REMARK SMILES IDX 7 1 30 2 31 3 34 4 36 5 6 6 8 7 9 8 15 9 14 10 16 11 13 12
REMARK SMILES IDX 18 13 11 14 28 15 27 16 10 17 29 18 17 19 19 21 26 22 20 23
REMARK SMILES IDX 24 24 21 25 22 26 25 27 23 29 12 31 5 33 4 34 3 35 38 36
REMARK SMILES IDX 2 37 40 38 42 39 1 40 39 41 41 43 43 45 32 47 33 48 37 50
REMARK SMILES IDX 35 52
REMARK H PARENT 17 20 25 28 23 30 12 32 39 42 41 44 43 46 33 49 37 51 35 53
ROOT
ATOM      1  C   UNL     1      -1.247   0.788   0.694  1.00  0.00     0.339 C 
ATOM      2  O   UNL     1      -1.482   2.000   1.438  1.00  0.00    -0.332 OA
ATOM      3  C   UNL     1      -2.773   2.066   2.037  1.00  0.00     0.179 C 
ATOM      4  C   UNL     1      -2.914   0.988   3.128  1.00  0.00     0.177 C 
ATOM      5  C   UNL     1      -2.256  -0.335   2.693  1.00  0.00     0.181 C 
ATOM      6  C   UNL     1      -2.096  -0.425   1.169  1.00  0.00     0.221 C 
ENDROOT
BRANCH   1   7
ATOM      7  O   UNL     1       0.130   0.404   0.838  1.00  0.00    -0.462 OA
BRANCH   7   8
ATOM      8  C   UNL     1       1.080   1.115   0.161  1.00  0.00     0.130 A 
ATOM      9  O   UNL     1       4.405   4.040  -2.422  1.00  0.00    -0.285 OA
ATOM     10  C   UNL     1       4.410   2.988  -1.790  1.00  0.00     0.238 C 
ATOM     11  C   UNL     1       5.701   2.263  -1.667  1.00  0.00     0.208 C 
ATOM     12  C   UNL     1       3.236   2.378  -1.134  1.00  0.00     0.111 A 
ATOM     13  C   UNL     1       5.743   1.115  -0.970  1.00  0.00     0.180 C 
ATOM     14  C   UNL     1       1.954   2.938  -1.175  1.00  0.00     0.134 A 
ATOM     15  C   UNL     1       3.430   1.187  -0.438  1.00  0.00     0.146 A 
ATOM     16  O   UNL     1       4.645   0.559  -0.333  1.00  0.00    -0.452 OA
ATOM     17  C   UNL     1       0.880   2.311  -0.529  1.00  0.00     0.093 A 
ATOM     18  C   UNL     1       2.360   0.561   0.207  1.00  0.00     0.094 A 
BRANCH  11  19
ATOM     19  O   UNL     1       6.799   2.843  -2.277  1.00  0.00    -0.502 OA
ATOM     20  H   UNL     1       6.448   3.662  -2.688  1.00  0.00     0.293 HD
ENDBRANCH  11  19
BRANCH  13  21
ATOM     21  C   UNL     1       6.979   0.327  -0.784  1.00  0.00     0.025 A 
ATOM     22  C   UNL     1       7.781  -0.044  -1.872  1.00  0.00     0.062 A 
ATOM     23  C   UNL     1       7.344  -0.102   0.506  1.00  0.00     0.016 A 
ATOM     24  C   UNL     1       8.920  -0.811  -1.660  1.00  0.00     0.158 A 
ATOM     25  C   UNL     1       8.495  -0.872   0.713  1.00  0.00     0.051 A 
ATOM     26  C   UNL     1       9.277  -1.221  -0.378  1.00  0.00     0.157 A 
BRANCH  24  27
ATOM     27  O   UNL     1       9.693  -1.168  -2.728  1.00  0.00    -0.504 OA
ATOM     28  H   UNL     1      10.426  -1.684  -2.338  1.00  0.00     0.293 HD
ENDBRANCH  24  27
BRANCH  26  29
ATOM     29  O   UNL     1      10.412  -1.973  -0.244  1.00  0.00    -0.504 OA
ATOM     30  H   UNL     1      10.534  -2.168   0.701  1.00  0.00     0.293 HD
ENDBRANCH  26  29
ENDBRANCH  13  21
BRANCH  14  31
ATOM     31  O   UNL     1       1.726   4.108  -1.842  1.00  0.00    -0.507 OA
ATOM     32  H   UNL     1       0.790   4.356  -1.788  1.00  0.00     0.293 HD
ENDBRANCH  14  31
ENDBRANCH   7   8
ENDBRANCH   1   7
BRANCH   6  33
ATOM     33  O   UNL     1      -3.377  -0.360   0.517  1.00  0.00    -0.337 OA
BRANCH  33  34
ATOM     34  C   UNL     1      -3.973  -1.627   0.240  1.00  0.00     0.282 C 
ATOM     35  O   UNL     1      -5.369  -1.384   0.007  1.00  0.00    -0.344 OA
ATOM     36  C   UNL     1      -3.325  -2.293  -1.000  1.00  0.00     0.202 C 
ATOM     37  C   UNL     1      -6.114  -2.582  -0.245  1.00  0.00     0.150 C 
ATOM     38  C   UNL     1      -4.108  -3.565  -1.360  1.00  0.00     0.179 C 
ATOM     39  C   UNL     1      -5.605  -3.262  -1.529  1.00  0.00     0.174 C 
ATOM     40  C   UNL     1      -7.583  -2.186  -0.342  1.00  0.00     0.041 C 
BRANCH  36  41
ATOM     41  O   UNL     1      -3.312  -1.394  -2.129  1.00  0.00    -0.385 OA
ATOM     42  H   UNL     1      -4.255  -1.202  -2.324  1.00  0.00     0.211 HD
ENDBRANCH  36  41
BRANCH  38  43
ATOM     43  O   UNL     1      -3.591  -4.131  -2.569  1.00  0.00    -0.387 OA
ATOM     44  H   UNL     1      -3.604  -3.395  -3.216  1.00  0.00     0.211 HD
ENDBRANCH  38  43
BRANCH  39  45
ATOM     45  O   UNL     1      -5.768  -2.392  -2.666  1.00  0.00    -0.388 OA
ATOM     46  H   UNL     1      -6.715  -2.384  -2.892  1.00  0.00     0.211 HD
ENDBRANCH  39  45
ENDBRANCH  33  34
ENDBRANCH   6  33
BRANCH   3  47
ATOM     47  C   UNL     1      -2.988   3.460   2.636  1.00  0.00     0.191 C 
BRANCH  47  48
ATOM     48  O   UNL     1      -4.302   3.577   3.178  1.00  0.00    -0.394 OA
ATOM     49  H   UNL     1      -4.892   3.824   2.441  1.00  0.00     0.210 HD
ENDBRANCH  47  48
ENDBRANCH   3  47
BRANCH   5  50
ATOM     50  O   UNL     1      -2.998  -1.450   3.208  1.00  0.00    -0.387 OA
ATOM     51  H   UNL     1      -3.875  -1.068   3.437  1.00  0.00     0.211 HD
ENDBRANCH   5  50
BRANCH   4  52
ATOM     52  O   UNL     1      -4.293   0.757   3.460  1.00  0.00    -0.387 OA
ATOM     53  H   UNL     1      -4.660   1.638   3.693  1.00  0.00     0.211 HD
ENDBRANCH   4  52
TORSDOF 16
