REMARK SMILES O=C1c2c(O)cc(O)cc2O[C@H](c2cc(O)c(O)c(O)c2)[C@H]1O
REMARK SMILES IDX 12 1 22 2 2 3 1 4 3 5 4 6 6 7 7 8 9 9 10 10 11 11 13 12
REMARK SMILES IDX 14 13 15 14 21 15 17 16 19 17 16 18 18 20 20 22 23 24 5 26
REMARK SMILES IDX 8 28
REMARK H PARENT 16 19 18 21 20 23 23 25 5 27 8 29
ROOT
ATOM      1  C   UNL     1       0.131  -0.275   0.456  1.00  0.00     0.240 C 
ATOM      2  C   UNL     1       0.199  -1.521  -0.433  1.00  0.00     0.231 C 
ATOM      3  C   UNL     1      -1.193  -2.110  -0.550  1.00  0.00     0.202 C 
ATOM      4  O   UNL     1      -1.390  -3.315  -0.718  1.00  0.00    -0.291 OA
ATOM      5  C   UNL     1      -2.329  -1.177  -0.495  1.00  0.00     0.105 A 
ATOM      6  C   UNL     1      -3.643  -1.611  -0.704  1.00  0.00     0.133 A 
ATOM      7  C   UNL     1      -4.692  -0.696  -0.691  1.00  0.00     0.093 A 
ATOM      8  C   UNL     1      -4.422   0.652  -0.475  1.00  0.00     0.123 A 
ATOM      9  C   UNL     1      -3.120   1.096  -0.261  1.00  0.00     0.093 A 
ATOM     10  C   UNL     1      -2.072   0.173  -0.254  1.00  0.00     0.138 A 
ATOM     11  O   UNL     1      -0.823   0.683  -0.036  1.00  0.00    -0.481 OA
ENDROOT
BRANCH   1  12
ATOM     12  C   UNL     1       1.489   0.415   0.537  1.00  0.00     0.003 A 
ATOM     13  C   UNL     1       2.414   0.018   1.525  1.00  0.00     0.058 A 
ATOM     14  C   UNL     1       3.666   0.625   1.593  1.00  0.00     0.161 A 
ATOM     15  C   UNL     1       1.859   1.419  -0.379  1.00  0.00     0.058 A 
ATOM     16  C   UNL     1       4.009   1.623   0.690  1.00  0.00     0.200 A 
ATOM     17  C   UNL     1       3.111   2.015  -0.291  1.00  0.00     0.161 A 
BRANCH  14  18
ATOM     18  O   UNL     1       4.595   0.267   2.530  1.00  0.00    -0.504 OA
ATOM     19  H   UNL     1       4.232  -0.474   3.047  1.00  0.00     0.293 HD
ENDBRANCH  14  18
BRANCH  16  20
ATOM     20  O   UNL     1       5.236   2.226   0.751  1.00  0.00    -0.502 OA
ATOM     21  H   UNL     1       5.680   1.785   1.505  1.00  0.00     0.293 HD
ENDBRANCH  16  20
BRANCH  17  22
ATOM     22  O   UNL     1       3.453   2.990  -1.182  1.00  0.00    -0.504 OA
ATOM     23  H   UNL     1       4.361   3.248  -0.924  1.00  0.00     0.293 HD
ENDBRANCH  17  22
ENDBRANCH   1  12
BRANCH   2  24
ATOM     24  O   UNL     1       1.051  -2.525   0.129  1.00  0.00    -0.381 OA
ATOM     25  H   UNL     1       0.839  -3.356  -0.342  1.00  0.00     0.211 HD
ENDBRANCH   2  24
BRANCH   6  26
ATOM     26  O   UNL     1      -3.969  -2.920  -0.936  1.00  0.00    -0.507 OA
ATOM     27  H   UNL     1      -3.146  -3.456  -0.915  1.00  0.00     0.293 HD
ENDBRANCH   6  26
BRANCH   8  28
ATOM     28  O   UNL     1      -5.474   1.518  -0.480  1.00  0.00    -0.508 OA
ATOM     29  H   UNL     1      -5.147   2.422  -0.333  1.00  0.00     0.293 HD
ENDBRANCH   8  28
TORSDOF 7
