REMARK SMILES O=c1c(-c2ccc(O)cc2)coc2cc(O)cc(O)c12
REMARK SMILES IDX 1 1 2 2 3 3 11 4 12 5 13 6 14 7 15 8 17 9 18 10 20 11 4 12
REMARK SMILES IDX 5 13 10 14 6 15 9 16 7 17 8 18 19 20 16 22
REMARK H PARENT 8 19 19 21 16 23
ROOT
ATOM      1  O   UNL     1       0.261   0.541  -1.892  1.00  0.00    -0.288 OA
ATOM      2  C   UNL     1       0.525   0.130  -0.765  1.00  0.00     0.204 C 
ATOM      3  C   UNL     1      -0.487   0.016   0.321  1.00  0.00     0.065 C 
ATOM      4  C   UNL     1      -0.059  -0.469   1.497  1.00  0.00     0.208 C 
ATOM      5  O   UNL     1       1.221  -0.856   1.813  1.00  0.00    -0.463 OA
ATOM      6  C   UNL     1       2.180  -0.750   0.838  1.00  0.00     0.145 A 
ATOM      7  C   UNL     1       3.475  -1.146   1.181  1.00  0.00     0.094 A 
ATOM      8  C   UNL     1       4.486  -1.061   0.228  1.00  0.00     0.123 A 
ATOM      9  C   UNL     1       4.224  -0.590  -1.055  1.00  0.00     0.093 A 
ATOM     10  C   UNL     1       2.931  -0.197  -1.390  1.00  0.00     0.134 A 
ATOM     11  C   UNL     1       1.903  -0.276  -0.444  1.00  0.00     0.107 A 
ENDROOT
BRANCH   3  12
ATOM     12  C   UNL     1      -1.903   0.380   0.126  1.00  0.00    -0.011 A 
ATOM     13  C   UNL     1      -2.569   1.208   1.044  1.00  0.00     0.013 A 
ATOM     14  C   UNL     1      -2.613  -0.093  -0.989  1.00  0.00     0.013 A 
ATOM     15  C   UNL     1      -3.912   1.544   0.856  1.00  0.00     0.047 A 
ATOM     16  C   UNL     1      -3.957   0.244  -1.179  1.00  0.00     0.047 A 
ATOM     17  C   UNL     1      -4.595   1.060  -0.252  1.00  0.00     0.115 A 
BRANCH  17  18
ATOM     18  O   UNL     1      -5.902   1.415  -0.398  1.00  0.00    -0.508 OA
ATOM     19  H   UNL     1      -6.235   1.038  -1.229  1.00  0.00     0.293 HD
ENDBRANCH  17  18
ENDBRANCH   3  12
BRANCH  10  20
ATOM     20  O   UNL     1       2.737   0.259  -2.667  1.00  0.00    -0.507 OA
ATOM     21  H   UNL     1       1.789   0.506  -2.763  1.00  0.00     0.293 HD
ENDBRANCH  10  20
BRANCH   8  22
ATOM     22  O   UNL     1       5.765  -1.436   0.517  1.00  0.00    -0.508 OA
ATOM     23  H   UNL     1       5.810  -1.741   1.438  1.00  0.00     0.293 HD
ENDBRANCH   8  22
TORSDOF 4
