REMARK SMILES COc1cc(/C=C/C(=O)O)ccc1O
REMARK SMILES IDX 6 1 7 2 5 3 3 4 4 5 13 6 12 7 11 8 2 9 1 10 14 11 8 13 9 14
REMARK SMILES IDX 10 15
REMARK H PARENT 14 12 10 16
ROOT
ATOM      1  C   UNL     1       1.878   0.439  -0.082  1.00  0.00     0.016 C 
ATOM      2  C   UNL     1       2.281  -0.173  -1.206  1.00  0.00     0.094 C 
ENDROOT
BRANCH   1   3
ATOM      3  C   UNL     1       0.603   0.150   0.591  1.00  0.00    -0.021 A 
ATOM      4  C   UNL     1      -1.787  -0.303   0.550  1.00  0.00     0.161 A 
ATOM      5  C   UNL     1      -0.590  -0.057  -0.126  1.00  0.00     0.058 A 
ATOM      6  C   UNL     1      -1.780  -0.329   1.949  1.00  0.00     0.157 A 
ATOM      7  C   UNL     1      -0.618  -0.111   2.674  1.00  0.00     0.051 A 
ATOM      8  C   UNL     1       0.574   0.134   1.993  1.00  0.00     0.012 A 
BRANCH   4   9
ATOM      9  O   UNL     1      -3.012  -0.526  -0.025  1.00  0.00    -0.493 OA
ATOM     10  C   UNL     1      -3.062  -0.513  -1.447  1.00  0.00     0.278 C 
ENDBRANCH   4   9
BRANCH   6  11
ATOM     11  O   UNL     1      -2.938  -0.567   2.639  1.00  0.00    -0.504 OA
ATOM     12  H   UNL     1      -3.621  -0.686   1.951  1.00  0.00     0.293 HD
ENDBRANCH   6  11
ENDBRANCH   1   3
BRANCH   2  13
ATOM     13  C   UNL     1       3.561   0.108  -1.871  1.00  0.00     0.328 C 
ATOM     14  O   UNL     1       3.931  -0.431  -2.898  1.00  0.00    -0.247 OA
BRANCH  13  15
ATOM     15  O   UNL     1       4.310   1.030  -1.249  1.00  0.00    -0.478 OA
ATOM     16  H   UNL     1       5.111   1.097  -1.809  1.00  0.00     0.297 HD
ENDBRANCH  13  15
ENDBRANCH   2  13
TORSDOF 5
