REMARK SMILES O=C(O)C1OC(Oc2cc3oc(-c4ccccc4)cc(=O)c3cc2O)C(O)C(O)C1O
REMARK SMILES IDX 6 1 5 2 4 3 30 4 28 5 26 6 7 7 8 8 21 9 20 10 19 11 22 12
REMARK SMILES IDX 12 13 23 14 10 15 11 16 24 17 9 18 13 19 14 20 18 21 15 22
REMARK SMILES IDX 17 23 16 24 25 25 27 27 2 29 1 30 3 31 29 33 31 35
REMARK H PARENT 25 26 27 28 3 32 29 34 31 36
ROOT
ATOM      1  C   UNL     1       2.480  -2.267   1.513  1.00  0.00     0.340 C 
ATOM      2  O   UNL     1       3.036  -1.876   0.248  1.00  0.00    -0.322 OA
ATOM      3  C   UNL     1       3.979  -0.805   0.276  1.00  0.00     0.263 C 
ATOM      4  C   UNL     1       3.737   0.236   1.383  1.00  0.00     0.186 C 
ATOM      5  C   UNL     1       3.741  -0.448   2.762  1.00  0.00     0.181 C 
ATOM      6  C   UNL     1       3.453  -1.956   2.672  1.00  0.00     0.214 C 
ENDROOT
BRANCH   1   7
ATOM      7  O   UNL     1       1.219  -1.635   1.788  1.00  0.00    -0.458 OA
BRANCH   7   8
ATOM      8  C   UNL     1       0.270  -1.690   0.803  1.00  0.00     0.168 A 
ATOM      9  O   UNL     1      -3.095  -2.312  -2.887  1.00  0.00    -0.289 OA
ATOM     10  C   UNL     1      -2.810  -1.395  -2.128  1.00  0.00     0.193 C 
ATOM     11  C   UNL     1      -3.517  -0.106  -2.188  1.00  0.00     0.100 C 
ATOM     12  C   UNL     1      -1.751  -1.517  -1.116  1.00  0.00     0.069 A 
ATOM     13  C   UNL     1      -3.175   0.870  -1.334  1.00  0.00     0.138 C 
ATOM     14  C   UNL     1      -1.032  -2.707  -0.975  1.00  0.00     0.066 A 
ATOM     15  C   UNL     1      -1.485  -0.427  -0.296  1.00  0.00     0.142 A 
ATOM     16  O   UNL     1      -2.168   0.758  -0.386  1.00  0.00    -0.456 OA
ATOM     17  C   UNL     1      -0.030  -2.793  -0.007  1.00  0.00     0.158 A 
ATOM     18  C   UNL     1      -0.483  -0.517   0.668  1.00  0.00     0.098 A 
BRANCH  13  19
ATOM     19  C   UNL     1      -3.841   2.187  -1.354  1.00  0.00     0.017 A 
ATOM     20  C   UNL     1      -3.082   3.359  -1.216  1.00  0.00     0.012 A 
ATOM     21  C   UNL     1      -5.234   2.304  -1.483  1.00  0.00     0.012 A 
ATOM     22  C   UNL     1      -3.696   4.614  -1.223  1.00  0.00     0.001 A 
ATOM     23  C   UNL     1      -5.848   3.559  -1.490  1.00  0.00     0.001 A 
ATOM     24  C   UNL     1      -5.078   4.713  -1.363  1.00  0.00     0.000 A 
ENDBRANCH  13  19
BRANCH  17  25
ATOM     25  O   UNL     1       0.622  -3.982   0.160  1.00  0.00    -0.504 OA
ATOM     26  H   UNL     1       0.279  -4.632  -0.476  1.00  0.00     0.293 HD
ENDBRANCH  17  25
ENDBRANCH   7   8
ENDBRANCH   1   7
BRANCH   6  27
ATOM     27  O   UNL     1       2.987  -2.439   3.936  1.00  0.00    -0.384 OA
ATOM     28  H   UNL     1       2.440  -1.708   4.296  1.00  0.00     0.211 HD
ENDBRANCH   6  27
BRANCH   3  29
ATOM     29  C   UNL     1       3.994  -0.125  -1.085  1.00  0.00     0.335 C 
ATOM     30  O   UNL     1       3.580   0.998  -1.334  1.00  0.00    -0.249 OA
BRANCH  29  31
ATOM     31  O   UNL     1       4.530  -0.892  -2.056  1.00  0.00    -0.479 OA
ATOM     32  H   UNL     1       4.419  -0.374  -2.880  1.00  0.00     0.296 HD
ENDBRANCH  29  31
ENDBRANCH   3  29
BRANCH   5  33
ATOM     33  O   UNL     1       2.789   0.183   3.639  1.00  0.00    -0.387 OA
ATOM     34  H   UNL     1       2.141   0.608   3.033  1.00  0.00     0.211 HD
ENDBRANCH   5  33
BRANCH   4  35
ATOM     35  O   UNL     1       2.476   0.920   1.233  1.00  0.00    -0.387 OA
ATOM     36  H   UNL     1       2.480   1.336   0.344  1.00  0.00     0.211 HD
ENDBRANCH   4  35
TORSDOF 9
