REMARK SMILES O=C1Cc2c(O)cc(O)cc2OC(c2ccc(O)cc2)C1
REMARK SMILES IDX 12 1 11 2 4 3 5 4 7 5 10 6 8 7 3 8 2 9 1 10 6 12 9 14 13 16
REMARK SMILES IDX 21 17 14 19 15 20 20 21 16 22 19 23 17 24 18 25
REMARK H PARENT 6 13 9 15 18 26
REMARK Flexibility Score:   22.900
ROOT
ATOM      1  O   UNL     1      -0.208   0.175  -0.744  1.00  0.00    -0.485 OA
ENDROOT
BRANCH   1   2
ATOM      2  C   UNL     1      -1.540   0.351  -0.467  1.00  0.00     0.131 A 
ATOM      3  C   UNL     1      -2.389  -0.599   0.134  1.00  0.00     0.044 A 
ATOM      4  C   UNL     1      -3.715  -0.196   0.390  1.00  0.00     0.126 A 
ATOM      5  C   UNL     1      -4.194   1.054  -0.004  1.00  0.00     0.092 A 
ATOM      6  C   UNL     1      -2.025   1.600  -0.880  1.00  0.00     0.093 A 
ATOM      7  C   UNL     1      -3.348   1.941  -0.646  1.00  0.00     0.122 A 
BRANCH   3   8
ATOM      8  C   UNL     1      -1.937  -1.988   0.516  1.00  0.00     0.119 C 
BRANCH   8   9
ATOM      9  C   UNL     1      -0.813  -2.570  -0.310  1.00  0.00     0.141 CG0
ATOM     10  O   UNL     1      -1.004  -3.550  -1.035  1.00  0.00    -0.299 OA
ATOM     11  G   UNL     1       0.576  -2.012  -0.139  1.00  0.00     0.000 G0
ENDBRANCH   8   9
ENDBRANCH   3   8
BRANCH   4  12
ATOM     12  O   UNL     1      -4.634  -0.982   1.033  1.00  0.00    -0.507 OA
ATOM     13  H   UNL     1      -4.211  -1.743   1.454  1.00  0.00     0.293 HD
ENDBRANCH   4  12
BRANCH   7  14
ATOM     14  O   UNL     1      -3.851   3.150  -1.023  1.00  0.00    -0.508 OA
ATOM     15  H   UNL     1      -3.157   3.649  -1.483  1.00  0.00     0.293 HD
ENDBRANCH   7  14
ENDBRANCH   1   2
BRANCH   1  16
ATOM     16  C   UNL     1       0.533  -0.543   0.248  1.00  0.00     0.211 C 
BRANCH  16  17
ATOM     17  C   UNL     1       0.576  -2.012  -0.139  1.00  0.00     0.126 CG0
ATOM     18  G   UNL     1      -0.813  -2.570  -0.310  1.00  0.00     0.000 G0
ENDBRANCH  16  17
BRANCH  16  19
ATOM     19  C   UNL     1       1.944   0.025   0.305  1.00  0.00    -0.007 A 
ATOM     20  C   UNL     1       2.589   0.180   1.543  1.00  0.00     0.011 A 
ATOM     21  C   UNL     1       2.640   0.376  -0.865  1.00  0.00     0.011 A 
ATOM     22  C   UNL     1       3.891   0.679   1.607  1.00  0.00     0.046 A 
ATOM     23  C   UNL     1       3.943   0.875  -0.800  1.00  0.00     0.046 A 
ATOM     24  C   UNL     1       4.557   1.023   0.438  1.00  0.00     0.115 A 
BRANCH  24  25
ATOM     25  O   UNL     1       5.827   1.505   0.549  1.00  0.00    -0.508 OA
ATOM     26  H   UNL     1       6.161   1.705  -0.341  1.00  0.00     0.293 HD
ENDBRANCH  24  25
ENDBRANCH  16  19
ENDBRANCH   1  16
TORSDOF 4
