REMARK SMILES O=C1OC(CO)=C[C@@H](O)[C@@H]1O[C@@H]1O[C@H](CO)[C@@H](O)[C@H](O)[C@H]1O
REMARK SMILES IDX 11 1 10 2 1 3 2 4 3 5 4 6 8 7 7 8 5 9 6 10 9 12 12 14 13 15
REMARK SMILES IDX 21 16 14 17 19 18 17 19 22 20 15 22 16 23 20 25 18 27
REMARK H PARENT 6 11 9 13 22 21 16 24 20 26 18 28
ROOT
ATOM      1  O   UNL     1       0.278  -1.085   0.469  1.00  0.00    -0.332 OA
ENDROOT
BRANCH   1   2
ATOM      2  C   UNL     1       1.465  -0.476  -0.064  1.00  0.00     0.264 C 
ATOM      3  O   UNL     1       1.197  -1.892  -2.003  1.00  0.00    -0.249 OA
ATOM      4  C   UNL     1       1.931  -1.157  -1.344  1.00  0.00     0.343 C 
ATOM      5  O   UNL     1       3.190  -0.833  -1.764  1.00  0.00    -0.427 OA
ATOM      6  C   UNL     1       4.125  -0.260  -0.869  1.00  0.00     0.132 C 
ATOM      7  C   UNL     1       2.558  -0.586   0.997  1.00  0.00     0.181 C 
ATOM      8  C   UNL     1       3.876  -0.177   0.446  1.00  0.00     0.052 C 
BRANCH   6   9
ATOM      9  C   UNL     1       5.421   0.147  -1.505  1.00  0.00     0.231 C 
BRANCH   9  10
ATOM     10  O   UNL     1       5.197   1.269  -2.346  1.00  0.00    -0.388 OA
ATOM     11  H   UNL     1       4.843   1.981  -1.787  1.00  0.00     0.211 HD
ENDBRANCH   9  10
ENDBRANCH   6   9
BRANCH   7  12
ATOM     12  O   UNL     1       2.259   0.304   2.075  1.00  0.00    -0.386 OA
ATOM     13  H   UNL     1       1.351   0.086   2.361  1.00  0.00     0.211 HD
ENDBRANCH   7  12
ENDBRANCH   1   2
BRANCH   1  14
ATOM     14  C   UNL     1      -0.916  -0.534  -0.099  1.00  0.00     0.283 C 
ATOM     15  O   UNL     1      -1.193   0.700   0.560  1.00  0.00    -0.341 OA
ATOM     16  C   UNL     1      -2.045  -1.556   0.139  1.00  0.00     0.202 C 
ATOM     17  C   UNL     1      -2.409   1.312   0.084  1.00  0.00     0.178 C 
ATOM     18  C   UNL     1      -3.380  -0.961  -0.300  1.00  0.00     0.179 C 
ATOM     19  C   UNL     1      -3.614   0.402   0.352  1.00  0.00     0.177 C 
BRANCH  16  20
ATOM     20  O   UNL     1      -1.833  -2.771  -0.596  1.00  0.00    -0.385 OA
ATOM     21  H   UNL     1      -0.874  -2.959  -0.566  1.00  0.00     0.211 HD
ENDBRANCH  16  20
BRANCH  17  22
ATOM     22  C   UNL     1      -2.557   2.660   0.796  1.00  0.00     0.191 C 
BRANCH  22  23
ATOM     23  O   UNL     1      -1.393   3.456   0.558  1.00  0.00    -0.394 OA
ATOM     24  H   UNL     1      -0.636   2.898   0.816  1.00  0.00     0.210 HD
ENDBRANCH  22  23
ENDBRANCH  17  22
BRANCH  18  25
ATOM     25  O   UNL     1      -4.458  -1.841   0.058  1.00  0.00    -0.387 OA
ATOM     26  H   UNL     1      -4.176  -2.727  -0.251  1.00  0.00     0.211 HD
ENDBRANCH  18  25
BRANCH  19  27
ATOM     27  O   UNL     1      -4.815   0.971  -0.169  1.00  0.00    -0.387 OA
ATOM     28  H   UNL     1      -5.482   0.255  -0.121  1.00  0.00     0.211 HD
ENDBRANCH  19  27
ENDBRANCH   1  14
TORSDOF 10
