REMARK SMILES CC1CCC2(CCCC3(CCC4(CCC(C)(C)C4)C3)C2)CC12CCC(O)C(C)C2(C)C(=O)O
REMARK SMILES IDX 16 1 15 2 17 3 14 4 13 5 12 6 18 7 11 8 10 9 9 10 19 11 8 12
REMARK SMILES IDX 7 13 6 14 5 15 20 16 4 17 3 18 2 19 1 20 22 21 21 22 23 23
REMARK SMILES IDX 24 24 25 25 27 26 28 27 29 28 30 29 31 30 32 31 33 32 26 34
REMARK H PARENT 33 33 26 35
ROOT
ATOM      1  C   UNL     1       7.839   0.798  -1.203  1.00  0.00     0.011 C 
ATOM      2  C   UNL     1       6.634  -0.096  -0.867  1.00  0.00    -0.035 C 
ATOM      3  C   UNL     1       7.060  -1.125   0.186  1.00  0.00     0.011 C 
ATOM      4  C   UNL     1       6.113  -0.796  -2.138  1.00  0.00     0.007 C 
ATOM      5  C   UNL     1       4.957   0.074  -2.610  1.00  0.00     0.007 C 
ATOM      6  C   UNL     1       4.264   0.478  -1.310  1.00  0.00    -0.029 C 
ATOM      7  C   UNL     1       5.449   0.772  -0.366  1.00  0.00     0.013 C 
ATOM      8  C   UNL     1       3.312   1.656  -1.476  1.00  0.00     0.007 C 
ATOM      9  C   UNL     1       2.462   1.609  -0.213  1.00  0.00     0.007 C 
ATOM     10  C   UNL     1       2.216   0.102   0.065  1.00  0.00    -0.029 C 
ATOM     11  C   UNL     1       3.334  -0.620  -0.752  1.00  0.00     0.014 C 
ATOM     12  C   UNL     1       2.345  -0.215   1.561  1.00  0.00     0.007 C 
ATOM     13  C   UNL     1       1.271   0.449   2.418  1.00  0.00     0.001 C 
ATOM     14  C   UNL     1      -0.028   0.760   1.673  1.00  0.00     0.007 C 
ATOM     15  C   UNL     1      -0.384  -0.262   0.565  1.00  0.00    -0.029 C 
ATOM     16  C   UNL     1       0.815  -0.342  -0.452  1.00  0.00     0.014 C 
ATOM     17  C   UNL     1      -0.649  -1.658   1.152  1.00  0.00     0.007 C 
ATOM     18  C   UNL     1      -1.878  -1.730   2.051  1.00  0.00     0.004 C 
ATOM     19  C   UNL     1      -3.003  -0.712   1.742  1.00  0.00    -0.007 C 
ATOM     20  C   UNL     1      -4.241  -1.179   2.517  1.00  0.00     0.008 C 
ATOM     21  C   UNL     1      -3.111  -0.346   0.204  1.00  0.00    -0.010 C 
ATOM     22  C   UNL     1      -1.661   0.193  -0.221  1.00  0.00     0.015 C 
ATOM     23  C   UNL     1      -3.410  -1.617  -0.667  1.00  0.00     0.011 C 
ATOM     24  C   UNL     1      -4.855  -2.102  -0.713  1.00  0.00     0.033 C 
ATOM     25  C   UNL     1      -5.851  -1.013  -1.074  1.00  0.00     0.118 C 
ATOM     26  C   UNL     1      -5.688   0.234  -0.190  1.00  0.00     0.032 C 
ATOM     27  C   UNL     1      -6.780   1.263  -0.539  1.00  0.00     0.011 C 
ATOM     28  C   UNL     1      -4.217   0.804  -0.155  1.00  0.00     0.076 C 
ATOM     29  C   UNL     1      -4.136   1.945   0.903  1.00  0.00     0.025 C 
ENDROOT
BRANCH  28  30
ATOM     30  C   UNL     1      -3.912   1.437  -1.543  1.00  0.00     0.310 C 
ATOM     31  O   UNL     1      -3.321   0.941  -2.487  1.00  0.00    -0.252 OA
BRANCH  30  32
ATOM     32  O   UNL     1      -4.376   2.696  -1.689  1.00  0.00    -0.481 OA
ATOM     33  H   UNL     1      -4.103   2.920  -2.604  1.00  0.00     0.296 HD
ENDBRANCH  30  32
ENDBRANCH  28  30
BRANCH  25  34
ATOM     34  O   UNL     1      -5.710  -0.703  -2.452  1.00  0.00    -0.393 OA
ATOM     35  H   UNL     1      -6.516  -0.249  -2.749  1.00  0.00     0.210 HD
ENDBRANCH  25  34
TORSDOF 3
