REMARK SMILES CC1CCC2(CC(=O)CC3(CCC4(CCC(C)(C)C4)C3)C2)CC12CCC(O)C(C)(C)C2C(=O)O
REMARK SMILES IDX 17 1 16 2 18 3 15 4 14 5 13 6 19 7 12 8 11 9 10 10 20 11
REMARK SMILES IDX 9 12 7 13 8 14 6 15 5 16 21 17 4 18 3 19 2 20 1 21 23 22
REMARK SMILES IDX 22 23 24 24 25 25 26 26 28 27 29 28 30 29 31 30 32 31 33 32
REMARK SMILES IDX 34 33 27 35
REMARK H PARENT 34 34 27 36
ROOT
ATOM      1  C   UNL     1      -7.367   0.711  -0.415  1.00  0.00     0.011 C 
ATOM      2  C   UNL     1      -6.173   1.603  -0.040  1.00  0.00    -0.035 C 
ATOM      3  C   UNL     1      -6.588   3.071  -0.174  1.00  0.00     0.011 C 
ATOM      4  C   UNL     1      -5.657   1.296   1.368  1.00  0.00     0.007 C 
ATOM      5  C   UNL     1      -4.831   0.023   1.205  1.00  0.00     0.007 C 
ATOM      6  C   UNL     1      -4.233   0.079  -0.223  1.00  0.00    -0.029 C 
ATOM      7  C   UNL     1      -4.936   1.286  -0.898  1.00  0.00     0.013 C 
ATOM      8  C   UNL     1      -4.459  -1.243  -0.994  1.00  0.00     0.007 C 
ATOM      9  C   UNL     1      -3.103  -1.619  -1.583  1.00  0.00     0.008 C 
ATOM     10  C   UNL     1      -2.070  -1.107  -0.564  1.00  0.00    -0.022 C 
ATOM     11  C   UNL     1      -2.693   0.269  -0.218  1.00  0.00     0.014 C 
ATOM     12  C   UNL     1      -2.000  -2.027   0.663  1.00  0.00     0.082 C 
ATOM     13  C   UNL     1      -0.985  -1.519   1.660  1.00  0.00     0.134 C 
ATOM     14  O   UNL     1      -1.155  -1.669   2.870  1.00  0.00    -0.300 OA
ATOM     15  C   UNL     1       0.246  -0.818   1.120  1.00  0.00     0.082 C 
ATOM     16  C   UNL     1       0.576  -1.228  -0.329  1.00  0.00    -0.022 C 
ATOM     17  C   UNL     1      -0.678  -0.962  -1.233  1.00  0.00     0.015 C 
ATOM     18  C   UNL     1       0.966  -2.733  -0.396  1.00  0.00     0.008 C 
ATOM     19  C   UNL     1       2.447  -2.983  -0.666  1.00  0.00     0.004 C 
ATOM     20  C   UNL     1       3.337  -2.047   0.171  1.00  0.00    -0.007 C 
ATOM     21  C   UNL     1       4.753  -2.641   0.183  1.00  0.00     0.008 C 
ATOM     22  C   UNL     1       3.196  -0.538  -0.305  1.00  0.00    -0.013 C 
ATOM     23  C   UNL     1       1.739  -0.369  -0.909  1.00  0.00     0.015 C 
ATOM     24  C   UNL     1       4.173  -0.221  -1.490  1.00  0.00     0.011 C 
ATOM     25  C   UNL     1       5.514   0.378  -1.084  1.00  0.00     0.033 C 
ATOM     26  C   UNL     1       5.393   1.696  -0.310  1.00  0.00     0.121 C 
ATOM     27  C   UNL     1       4.031   1.911   0.410  1.00  0.00     0.004 C 
ATOM     28  C   UNL     1       3.034   2.704  -0.479  1.00  0.00     0.015 C 
ATOM     29  C   UNL     1       4.258   2.843   1.635  1.00  0.00     0.015 C 
ATOM     30  C   UNL     1       3.407   0.534   0.860  1.00  0.00     0.114 C 
ENDROOT
BRANCH  30  31
ATOM     31  C   UNL     1       4.083  -0.026   2.106  1.00  0.00     0.307 C 
ATOM     32  O   UNL     1       3.503  -0.475   3.082  1.00  0.00    -0.252 OA
BRANCH  31  33
ATOM     33  O   UNL     1       5.425  -0.025   2.077  1.00  0.00    -0.481 OA
ATOM     34  H   UNL     1       5.674  -0.416   2.942  1.00  0.00     0.296 HD
ENDBRANCH  31  33
ENDBRANCH  30  31
BRANCH  26  35
ATOM     35  O   UNL     1       5.653   2.786  -1.198  1.00  0.00    -0.393 OA
ATOM     36  H   UNL     1       6.563   2.686  -1.527  1.00  0.00     0.210 HD
ENDBRANCH  26  35
TORSDOF 3
