REMARK SMILES O=c1cc(-c2ccccc2)oc2cc(O)c(O)cc12
REMARK SMILES IDX 1 1 2 2 3 3 4 4 11 5 12 6 13 7 14 8 16 9 18 10 19 11 5 12
REMARK SMILES IDX 6 13 10 14 7 15 9 16 8 17 17 18 15 20
REMARK H PARENT 17 19 15 21
ROOT
ATOM      1  O   UNL     1       0.994  -2.121   2.562  1.00  0.00    -0.289 OA
ATOM      2  C   UNL     1       0.733  -1.366   1.636  1.00  0.00     0.193 C 
ATOM      3  C   UNL     1      -0.660  -1.099   1.244  1.00  0.00     0.100 C 
ATOM      4  C   UNL     1      -0.908  -0.275   0.216  1.00  0.00     0.138 C 
ATOM      5  O   UNL     1       0.073   0.377  -0.516  1.00  0.00    -0.456 OA
ATOM      6  C   UNL     1       1.387   0.158  -0.188  1.00  0.00     0.142 A 
ATOM      7  C   UNL     1       2.350   0.826  -0.945  1.00  0.00     0.098 A 
ATOM      8  C   UNL     1       3.692   0.642  -0.641  1.00  0.00     0.161 A 
ATOM      9  C   UNL     1       4.079  -0.223   0.381  1.00  0.00     0.158 A 
ATOM     10  C   UNL     1       3.129  -0.879   1.151  1.00  0.00     0.066 A 
ATOM     11  C   UNL     1       1.776  -0.683   0.857  1.00  0.00     0.069 A 
ENDROOT
BRANCH   4  12
ATOM     12  C   UNL     1      -2.287   0.033  -0.214  1.00  0.00     0.017 A 
ATOM     13  C   UNL     1      -3.262  -0.969  -0.328  1.00  0.00     0.012 A 
ATOM     14  C   UNL     1      -2.640   1.351  -0.544  1.00  0.00     0.012 A 
ATOM     15  C   UNL     1      -4.559  -0.659  -0.745  1.00  0.00     0.001 A 
ATOM     16  C   UNL     1      -3.937   1.661  -0.960  1.00  0.00     0.001 A 
ATOM     17  C   UNL     1      -4.896   0.656  -1.059  1.00  0.00     0.000 A 
ENDBRANCH   4  12
BRANCH   9  18
ATOM     18  O   UNL     1       5.401  -0.457   0.623  1.00  0.00    -0.504 OA
ATOM     19  H   UNL     1       5.835  -0.517  -0.248  1.00  0.00     0.293 HD
ENDBRANCH   9  18
BRANCH   8  20
ATOM     20  O   UNL     1       4.628   1.346  -1.343  1.00  0.00    -0.504 OA
ATOM     21  H   UNL     1       5.344   1.556  -0.714  1.00  0.00     0.293 HD
ENDBRANCH   8  20
TORSDOF 3
