REMARK SMILES COc1cc2c(=O)cc(-c3ccccc3)oc2cc1O
REMARK SMILES IDX 7 1 6 2 8 3 9 4 16 5 17 6 18 7 19 8 3 9 4 10 5 11 10 12
REMARK SMILES IDX 11 13 15 14 12 15 14 16 13 17 2 18 1 19 20 20
REMARK H PARENT 20 21
ROOT
ATOM      1  O   UNL     1       0.574   0.490  -3.184  1.00  0.00    -0.289 OA
ATOM      2  C   UNL     1       0.254   0.330  -2.013  1.00  0.00     0.193 C 
ATOM      3  C   UNL     1      -1.114   0.615  -1.553  1.00  0.00     0.100 C 
ATOM      4  C   UNL     1      -1.422   0.434  -0.260  1.00  0.00     0.138 C 
ATOM      5  O   UNL     1      -0.532  -0.030   0.696  1.00  0.00    -0.456 OA
ATOM      6  C   UNL     1       0.755  -0.308   0.311  1.00  0.00     0.142 A 
ATOM      7  C   UNL     1       1.630  -0.763   1.292  1.00  0.00     0.098 A 
ATOM      8  C   UNL     1       2.943  -1.057   0.939  1.00  0.00     0.161 A 
ATOM      9  C   UNL     1       3.409  -0.906  -0.375  1.00  0.00     0.161 A 
ATOM     10  C   UNL     1       2.528  -0.449  -1.352  1.00  0.00     0.066 A 
ATOM     11  C   UNL     1       1.203  -0.153  -1.000  1.00  0.00     0.069 A 
ENDROOT
BRANCH   4  12
ATOM     12  C   UNL     1      -2.781   0.695   0.256  1.00  0.00     0.017 A 
ATOM     13  C   UNL     1      -3.503   1.838  -0.120  1.00  0.00     0.012 A 
ATOM     14  C   UNL     1      -3.368  -0.198   1.165  1.00  0.00     0.012 A 
ATOM     15  C   UNL     1      -4.784   2.072   0.387  1.00  0.00     0.001 A 
ATOM     16  C   UNL     1      -4.649   0.036   1.671  1.00  0.00     0.001 A 
ATOM     17  C   UNL     1      -5.357   1.170   1.281  1.00  0.00     0.000 A 
ENDBRANCH   4  12
BRANCH   9  18
ATOM     18  O   UNL     1       4.726  -1.236  -0.562  1.00  0.00    -0.493 OA
ATOM     19  C   UNL     1       5.236  -1.096  -1.885  1.00  0.00     0.278 C 
ENDBRANCH   9  18
BRANCH   8  20
ATOM     20  O   UNL     1       3.787  -1.504   1.919  1.00  0.00    -0.504 OA
ATOM     21  H   UNL     1       4.645  -1.648   1.474  1.00  0.00     0.293 HD
ENDBRANCH   8  20
TORSDOF 3
