REMARK SMILES COc1cc(Cc2c(C)c(C)cc(OC)c2OC)c(C)c(CO)c1C
REMARK SMILES IDX 5 1 4 2 3 3 24 4 25 5 21 6 19 7 20 8 6 9 7 10 13 11 12 12
REMARK SMILES IDX 16 13 10 14 8 15 11 16 9 17 14 18 15 19 17 20 18 21 2 22
REMARK SMILES IDX 1 23 22 24 23 25
REMARK H PARENT 23 26
ROOT
ATOM      1  C   UNL     1      -1.230  -0.155   0.921  1.00  0.00    -0.036 A 
ATOM      2  C   UNL     1      -2.210   0.699   1.464  1.00  0.00     0.051 A 
ATOM      3  C   UNL     1      -3.428   0.925   0.823  1.00  0.00     0.122 A 
ATOM      4  C   UNL     1      -3.697   0.287  -0.401  1.00  0.00    -0.003 A 
ATOM      5  C   UNL     1      -5.009   0.547  -1.108  1.00  0.00     0.049 C 
ATOM      6  C   UNL     1      -2.719  -0.566  -0.981  1.00  0.00    -0.013 A 
ATOM      7  C   UNL     1      -1.512  -0.844  -0.281  1.00  0.00    -0.042 A 
ATOM      8  C   UNL     1      -0.523  -1.842  -0.834  1.00  0.00     0.045 C 
ENDROOT
BRANCH   1   9
ATOM      9  C   UNL     1       0.076  -0.304   1.700  1.00  0.00     0.075 C 
BRANCH   9  10
ATOM     10  C   UNL     1       1.376   0.021   0.963  1.00  0.00     0.006 A 
ATOM     11  C   UNL     1       3.652  -0.680   0.332  1.00  0.00     0.161 A 
ATOM     12  C   UNL     1       3.804   0.508  -0.381  1.00  0.00     0.054 A 
ATOM     13  C   UNL     1       2.425  -0.937   0.970  1.00  0.00     0.164 A 
ATOM     14  C   UNL     1       2.788   1.477  -0.410  1.00  0.00    -0.044 A 
ATOM     15  C   UNL     1       1.591   1.268   0.315  1.00  0.00    -0.041 A 
ATOM     16  C   UNL     1       3.040   2.744  -1.189  1.00  0.00     0.045 C 
ATOM     17  C   UNL     1       0.553   2.363   0.362  1.00  0.00     0.045 C 
BRANCH  11  18
ATOM     18  O   UNL     1       4.638  -1.626   0.452  1.00  0.00    -0.493 OA
ATOM     19  C   UNL     1       5.954  -1.261   0.059  1.00  0.00     0.278 C 
ENDBRANCH  11  18
BRANCH  13  20
ATOM     20  O   UNL     1       2.206  -2.079   1.711  1.00  0.00    -0.493 OA
ATOM     21  C   UNL     1       2.518  -3.295   1.034  1.00  0.00     0.278 C 
ENDBRANCH  13  20
ENDBRANCH   9  10
ENDBRANCH   1   9
BRANCH   3  22
ATOM     22  O   UNL     1      -4.406   1.760   1.300  1.00  0.00    -0.496 OA
ATOM     23  C   UNL     1      -4.190   2.388   2.557  1.00  0.00     0.278 C 
ENDBRANCH   3  22
BRANCH   6  24
ATOM     24  C   UNL     1      -2.986  -1.209  -2.330  1.00  0.00     0.192 C 
BRANCH  24  25
ATOM     25  O   UNL     1      -3.628  -2.468  -2.174  1.00  0.00    -0.392 OA
ATOM     26  H   UNL     1      -3.798  -2.592  -1.224  1.00  0.00     0.211 HD
ENDBRANCH  24  25
ENDBRANCH   6  24
TORSDOF 7
