REMARK SMILES COc1cc2ccc(=O)oc2cc1OC
REMARK SMILES IDX 3 1 4 2 5 3 6 4 7 5 8 6 9 7 10 8 11 9 12 10 13 11 2 12 1 13
REMARK SMILES IDX 14 14 15 15
REMARK H PARENT
ROOT
ATOM      1  C   UNL     1      -1.137  -0.679  -0.100  1.00  0.00     0.161 A 
ATOM      2  C   UNL     1       0.100  -1.295  -0.339  1.00  0.00     0.062 A 
ATOM      3  C   UNL     1       1.277  -0.542  -0.316  1.00  0.00     0.022 A 
ATOM      4  C   UNL     1       2.581  -1.140  -0.558  1.00  0.00     0.019 C 
ATOM      5  C   UNL     1       3.674  -0.372  -0.523  1.00  0.00     0.094 C 
ATOM      6  C   UNL     1       3.617   1.074  -0.246  1.00  0.00     0.336 C 
ATOM      7  O   UNL     1       4.640   1.747  -0.222  1.00  0.00    -0.246 OA
ATOM      8  O   UNL     1       2.361   1.620  -0.019  1.00  0.00    -0.423 OA
ATOM      9  C   UNL     1       1.200   0.821  -0.052  1.00  0.00     0.142 A 
ATOM     10  C   UNL     1      -0.016   1.457   0.188  1.00  0.00     0.098 A 
ATOM     11  C   UNL     1      -1.195   0.708   0.166  1.00  0.00     0.164 A 
ENDROOT
BRANCH   1  12
ATOM     12  O   UNL     1      -2.342  -1.338  -0.103  1.00  0.00    -0.493 OA
ATOM     13  C   UNL     1      -2.337  -2.733  -0.365  1.00  0.00     0.278 C 
ENDBRANCH   1  12
BRANCH  11  14
ATOM     14  O   UNL     1      -2.447   1.227   0.388  1.00  0.00    -0.493 OA
ATOM     15  C   UNL     1      -2.545   2.618   0.659  1.00  0.00     0.278 C 
ENDBRANCH  11  14
TORSDOF 2
