REMARK SMILES O=C(O)c1cc(O)c(O)c(O)c1
REMARK SMILES IDX 4 1 5 2 6 3 8 4 10 5 12 6 2 7 1 8 3 9 7 11 11 13 9 15
REMARK H PARENT 3 10 7 12 11 14 9 16
ROOT
ATOM      1  C   UNL     1       1.078  -0.285  -0.015  1.00  0.00     0.067 A 
ATOM      2  C   UNL     1       0.727   0.942  -0.597  1.00  0.00     0.066 A 
ATOM      3  C   UNL     1      -0.605   1.334  -0.600  1.00  0.00     0.162 A 
ATOM      4  C   UNL     1      -1.581   0.524  -0.034  1.00  0.00     0.200 A 
ATOM      5  C   UNL     1      -1.236  -0.692   0.544  1.00  0.00     0.162 A 
ATOM      6  C   UNL     1       0.091  -1.107   0.560  1.00  0.00     0.066 A 
ENDROOT
BRANCH   1   7
ATOM      7  C   UNL     1       2.481  -0.761   0.021  1.00  0.00     0.335 C 
ATOM      8  O   UNL     1       2.857  -1.811   0.509  1.00  0.00    -0.246 OA
BRANCH   7   9
ATOM      9  O   UNL     1       3.342   0.096  -0.552  1.00  0.00    -0.478 OA
ATOM     10  H   UNL     1       4.216  -0.337  -0.459  1.00  0.00     0.297 HD
ENDBRANCH   7   9
ENDBRANCH   1   7
BRANCH   3  11
ATOM     11  O   UNL     1      -0.952   2.526  -1.166  1.00  0.00    -0.504 OA
ATOM     12  H   UNL     1      -1.922   2.584  -1.050  1.00  0.00     0.293 HD
ENDBRANCH   3  11
BRANCH   5  13
ATOM     13  O   UNL     1      -2.238  -1.447   1.086  1.00  0.00    -0.504 OA
ATOM     14  H   UNL     1      -1.849  -2.262   1.450  1.00  0.00     0.293 HD
ENDBRANCH   5  13
BRANCH   4  15
ATOM     15  O   UNL     1      -2.884   0.940  -0.053  1.00  0.00    -0.502 OA
ATOM     16  H   UNL     1      -3.375   0.220   0.394  1.00  0.00     0.293 HD
ENDBRANCH   4  15
TORSDOF 5
