REMARK SMILES COc1cc(C2OC(=O)C2Cc2ccc(OC)c(OC)c2)ccc1O
REMARK SMILES IDX 10 1 8 2 9 3 7 4 6 5 11 6 12 7 18 8 21 9 15 10 14 11 13 12
REMARK SMILES IDX 19 13 20 14 16 15 17 16 5 17 22 18 4 19 23 20 3 21 24 22
REMARK SMILES IDX 2 23 1 24 25 25
REMARK H PARENT 25 26
ROOT
ATOM      1  C   UNL     1      -0.460  -0.596   1.467  1.00  0.00     0.149 C 
ATOM      2  C   UNL     1      -0.667  -2.124   1.468  1.00  0.00     0.314 C 
ATOM      3  O   UNL     1       0.005  -3.121   1.342  1.00  0.00    -0.252 OA
ATOM      4  O   UNL     1      -2.009  -2.047   1.636  1.00  0.00    -0.456 OA
ATOM      5  C   UNL     1      -1.985  -0.591   1.726  1.00  0.00     0.221 C 
ENDROOT
BRANCH   1   6
ATOM      6  C   UNL     1       0.060  -0.015   0.162  1.00  0.00     0.055 C 
BRANCH   6   7
ATOM      7  C   UNL     1       1.566  -0.107   0.114  1.00  0.00    -0.043 A 
ATOM      8  C   UNL     1       3.756   0.880   0.541  1.00  0.00     0.160 A 
ATOM      9  C   UNL     1       2.358   0.962   0.562  1.00  0.00     0.054 A 
ATOM     10  C   UNL     1       4.378  -0.295   0.076  1.00  0.00     0.160 A 
ATOM     11  C   UNL     1       3.589  -1.360  -0.367  1.00  0.00     0.051 A 
ATOM     12  C   UNL     1       2.195  -1.266  -0.350  1.00  0.00     0.008 A 
BRANCH   8  13
ATOM     13  O   UNL     1       4.598   1.881   0.961  1.00  0.00    -0.493 OA
ATOM     14  C   UNL     1       4.016   3.123   1.327  1.00  0.00     0.278 C 
ENDBRANCH   8  13
BRANCH  10  15
ATOM     15  O   UNL     1       5.751  -0.301   0.094  1.00  0.00    -0.493 OA
ATOM     16  C   UNL     1       6.409  -1.487  -0.327  1.00  0.00     0.278 C 
ENDBRANCH  10  15
ENDBRANCH   6   7
ENDBRANCH   1   6
BRANCH   5  17
ATOM     17  C   UNL     1      -2.962   0.159   0.724  1.00  0.00    -0.003 A 
ATOM     18  C   UNL     1      -3.203   1.544   0.848  1.00  0.00     0.011 A 
ATOM     19  C   UNL     1      -3.628  -0.510  -0.332  1.00  0.00     0.058 A 
ATOM     20  C   UNL     1      -4.045   2.229  -0.028  1.00  0.00     0.050 A 
ATOM     21  C   UNL     1      -4.476   0.161  -1.217  1.00  0.00     0.160 A 
ATOM     22  C   UNL     1      -4.670   1.533  -1.049  1.00  0.00     0.157 A 
BRANCH  21  23
ATOM     23  O   UNL     1      -5.159  -0.397  -2.266  1.00  0.00    -0.493 OA
ATOM     24  C   UNL     1      -5.012  -1.801  -2.450  1.00  0.00     0.278 C 
ENDBRANCH  21  23
BRANCH  22  25
ATOM     25  O   UNL     1      -5.490   2.224  -1.897  1.00  0.00    -0.504 OA
ATOM     26  H   UNL     1      -5.825   1.555  -2.526  1.00  0.00     0.293 HD
ENDBRANCH  22  25
ENDBRANCH   5  17
TORSDOF 7
