REMARK SMILES CC1=C(C)c2c(oc3ccccc3c2=O)C1=O
REMARK SMILES IDX 1 1 2 2 3 3 4 4 5 5 14 6 15 7 13 8 12 9 11 10 10 11 9 12
REMARK SMILES IDX 8 13 7 14 6 15 16 16 17 17
REMARK H PARENT
ROOT
ATOM      1  C   UNL     1      -4.187  -0.620  -0.354  1.00  0.00     0.049 C 
ATOM      2  C   UNL     1      -2.725  -0.424  -0.245  1.00  0.00     0.004 C 
ATOM      3  C   UNL     1      -1.948   0.673  -0.254  1.00  0.00    -0.029 C 
ATOM      4  C   UNL     1      -2.363   2.097  -0.384  1.00  0.00     0.046 C 
ATOM      5  C   UNL     1      -0.568   0.285  -0.112  1.00  0.00     0.073 C 
ATOM      6  C   UNL     1       0.648   1.111  -0.066  1.00  0.00     0.200 C 
ATOM      7  O   UNL     1       0.627   2.332  -0.150  1.00  0.00    -0.288 OA
ATOM      8  C   UNL     1       1.915   0.357   0.092  1.00  0.00     0.065 A 
ATOM      9  C   UNL     1       3.136   1.034   0.148  1.00  0.00     0.016 A 
ATOM     10  C   UNL     1       4.320   0.310   0.297  1.00  0.00     0.001 A 
ATOM     11  C   UNL     1       4.284  -1.084   0.388  1.00  0.00     0.004 A 
ATOM     12  C   UNL     1       3.064  -1.761   0.331  1.00  0.00     0.048 A 
ATOM     13  C   UNL     1       1.879  -1.041   0.183  1.00  0.00     0.138 A 
ATOM     14  O   UNL     1       0.709  -1.767   0.134  1.00  0.00    -0.452 OA
ATOM     15  C   UNL     1      -0.432  -1.036  -0.011  1.00  0.00     0.186 C 
ATOM     16  C   UNL     1      -1.798  -1.574  -0.089  1.00  0.00     0.224 C 
ATOM     17  O   UNL     1      -2.119  -2.745  -0.037  1.00  0.00    -0.285 OA
ENDROOT
TORSDOF 0
