REMARK SMILES O=C1N2CCCCC2CC2CCCN12
REMARK SMILES IDX 1 1 2 2 3 3 4 4 5 5 6 6 7 7 8 8 9 9 10 10 11 11 12 12 13 13
REMARK SMILES IDX 14 14
REMARK H PARENT
ROOT
ATOM      1  O   UNL     1       0.547   0.725   2.592  1.00  0.00    -0.248 OA
ATOM      2  C   UNL     1       0.445   0.481   1.392  1.00  0.00     0.320 C 
ATOM      3  N   UNL     1      -0.775   0.260   0.768  1.00  0.00    -0.322 N 
ATOM      4  C   UNL     1      -1.993   0.350   1.568  1.00  0.00     0.121 C 
ATOM      5  C   UNL     1      -3.199   0.744   0.725  1.00  0.00     0.022 C 
ATOM      6  C   UNL     1      -3.437  -0.231  -0.427  1.00  0.00     0.004 C 
ATOM      7  C   UNL     1      -2.158  -0.921  -0.908  1.00  0.00     0.025 C 
ATOM      8  C   UNL     1      -0.912  -0.063  -0.660  1.00  0.00     0.089 C 
ATOM      9  C   UNL     1       0.337  -0.760  -1.200  1.00  0.00     0.050 C 
ATOM     10  C   UNL     1       1.507   0.127  -0.841  1.00  0.00     0.089 C 
ATOM     11  C   UNL     1       2.884  -0.457  -1.145  1.00  0.00     0.027 C 
ATOM     12  C   UNL     1       3.776   0.293  -0.155  1.00  0.00     0.024 C 
ATOM     13  C   UNL     1       2.904   0.393   1.092  1.00  0.00     0.122 C 
ATOM     14  N   UNL     1       1.546   0.359   0.585  1.00  0.00    -0.322 N 
ENDROOT
TORSDOF 0
