REMARK SMILES COc1cc(OCC2COc3cc(O)c(O)cc3C(O)C2O)ccc1O
REMARK SMILES IDX 8 1 7 2 6 3 5 4 3 5 4 6 25 7 24 8 23 9 2 10 1 11 26 12 9 14
REMARK SMILES IDX 10 15 11 16 12 17 18 18 13 19 17 20 15 21 19 22 20 24 14 26
REMARK SMILES IDX 16 28 21 30 22 32
REMARK H PARENT 26 13 20 25 14 27 16 29 22 33
REMARK Flexibility Score:   60.900
ROOT
ATOM      1  C   UNL     1      -0.805   0.903   0.567  1.00  0.00     0.096 C 
ENDROOT
BRANCH   1   2
ATOM      2  C   UNL     1       0.643   1.359   0.808  1.00  0.00     0.239 C 
BRANCH   2   3
ATOM      3  O   UNL     1       1.522   0.430   0.168  1.00  0.00    -0.493 OA
BRANCH   3   4
ATOM      4  C   UNL     1       2.866   0.666   0.267  1.00  0.00     0.123 A 
ATOM      5  C   UNL     1       5.063  -0.162  -0.381  1.00  0.00     0.164 A 
ATOM      6  C   UNL     1       3.670  -0.274  -0.391  1.00  0.00     0.096 A 
ATOM      7  C   UNL     1       5.644   0.913   0.304  1.00  0.00     0.157 A 
ATOM      8  C   UNL     1       4.854   1.854   0.964  1.00  0.00     0.054 A 
ATOM      9  C   UNL     1       3.463   1.729   0.945  1.00  0.00     0.050 A 
BRANCH   5  10
ATOM     10  O   UNL     1       5.929  -1.028  -0.995  1.00  0.00    -0.493 OA
ATOM     11  C   UNL     1       5.365  -2.140  -1.676  1.00  0.00     0.278 C 
ENDBRANCH   5  10
BRANCH   7  12
ATOM     12  O   UNL     1       7.007   1.038   0.324  1.00  0.00    -0.504 OA
ATOM     13  H   UNL     1       7.248   1.817   0.847  1.00  0.00     0.293 HD
ENDBRANCH   7  12
ENDBRANCH   3   4
ENDBRANCH   2   3
ENDBRANCH   1   2
BRANCH   1  14
ATOM     14  C   UNL     1      -1.796   1.951   1.079  1.00  0.00     0.239 C 
BRANCH  14  15
ATOM     15  O   UNL     1      -3.067   2.000   0.418  1.00  0.00    -0.493 OA
BRANCH  15  16
ATOM     16  C   UNL     1      -3.581   0.924  -0.245  1.00  0.00     0.129 A 
ATOM     17  C   UNL     1      -4.407   1.270  -1.321  1.00  0.00     0.097 A 
ATOM     18  C   UNL     1      -3.391  -0.428   0.089  1.00  0.00     0.029 A 
ATOM     19  C   UNL     1      -5.008   0.279  -2.080  1.00  0.00     0.161 A 
ATOM     20  C   UNL     1      -4.013  -1.422  -0.696  1.00  0.00     0.060 A 
ATOM     21  C   UNL     1      -4.812  -1.061  -1.775  1.00  0.00     0.158 A 
BRANCH  18  22
ATOM     22  C   UNL     1      -2.579  -0.858   1.280  1.00  0.00     0.177 CG0
ATOM     23  G   UNL     1      -1.083  -0.474   1.205  1.00  0.00     0.000 G0
BRANCH  22  24
ATOM     24  O   UNL     1      -3.138  -0.330   2.498  1.00  0.00    -0.386 OA
ATOM     25  H   UNL     1      -4.012   0.047   2.283  1.00  0.00     0.211 HD
ENDBRANCH  22  24
ENDBRANCH  18  22
BRANCH  19  26
ATOM     26  O   UNL     1      -5.801   0.631  -3.133  1.00  0.00    -0.504 OA
ATOM     27  H   UNL     1      -6.107  -0.218  -3.509  1.00  0.00     0.293 HD
ENDBRANCH  19  26
BRANCH  21  28
ATOM     28  O   UNL     1      -5.433  -1.990  -2.560  1.00  0.00    -0.504 OA
ATOM     29  H   UNL     1      -5.202  -2.877  -2.235  1.00  0.00     0.293 HD
ENDBRANCH  21  28
ENDBRANCH  15  16
ENDBRANCH  14  15
ENDBRANCH   1  14
BRANCH   1  30
ATOM     30  C   UNL     1      -1.083  -0.474   1.205  1.00  0.00     0.157 CG0
ATOM     31  G   UNL     1      -2.579  -0.858   1.280  1.00  0.00     0.000 G0
BRANCH  30  32
ATOM     32  O   UNL     1      -0.548  -0.518   2.540  1.00  0.00    -0.389 OA
ATOM     33  H   UNL     1      -1.320  -0.407   3.137  1.00  0.00     0.211 HD
ENDBRANCH  30  32
ENDBRANCH   1  30
TORSDOF 9
