REMARK SMILES COC1CCC(S(O)(O)N[C@H]2CC[C@@H](NS(O)(O)C3CCC(OC)CC3)C3CCCCC32)CC1
REMARK SMILES IDX 11 1 32 2 31 3 30 4 29 5 28 6 27 7 14 8 13 9 12 10 10 11
REMARK SMILES IDX 7 13 6 14 3 15 4 16 34 17 5 18 33 19 2 20 1 21 8 22 9 24
REMARK SMILES IDX 15 26 16 28 17 29 18 31 19 33 20 34 26 35 21 36 25 37 22 38
REMARK SMILES IDX 23 39 24 40
REMARK H PARENT 10 12 8 23 9 25 15 27 17 30 18 32
ROOT
ATOM      1  C6  IQK A 701     -46.558   2.271 -14.564  1.00  0.00     0.078 C 
ATOM      2  C7  IQK A 701     -45.301   2.548 -15.112  1.00  0.00     0.012 C 
ATOM      3  C8  IQK A 701     -44.423   1.504 -15.397  1.00  0.00     0.005 C 
ATOM      4  C9  IQK A 701     -43.186   1.732 -15.975  1.00  0.00     0.000 C 
ATOM      5  C10 IQK A 701     -42.798   3.015 -16.266  1.00  0.00     0.000 C 
ATOM      6  C11 IQK A 701     -43.648   4.073 -16.001  1.00  0.00     0.005 C 
ATOM      7  C12 IQK A 701     -44.912   3.855 -15.421  1.00  0.00     0.012 C 
ATOM      8  C13 IQK A 701     -45.767   4.932 -15.173  1.00  0.00     0.078 C 
ATOM      9  C21 IQK A 701     -47.013   4.681 -14.570  1.00  0.00     0.022 C 
ATOM     10  C22 IQK A 701     -47.401   3.355 -14.257  1.00  0.00     0.022 C 
ENDROOT
BRANCH   1  11
ATOM     11  N1  IQK A 701     -46.731   0.987 -14.158  1.00  0.00    -0.216 NA
ATOM     12  H   UNL     1     -45.919   0.456 -14.502  1.00  0.00     0.147 HD
BRANCH  11  13
ATOM     13  S1  IQK A 701     -46.880   0.640 -12.579  1.00  0.00    -0.137 S 
BRANCH  13  14
ATOM     14  C5  IQK A 701     -48.187   1.155 -11.790  1.00  0.00     0.118 C 
ATOM     15  C2  IQK A 701     -50.443   2.012 -10.377  1.00  0.00     0.118 C 
ATOM     16  C3  IQK A 701     -49.216   2.634 -10.172  1.00  0.00     0.034 C 
ATOM     17  C24 IQK A 701     -50.539   0.964 -11.292  1.00  0.00     0.034 C 
ATOM     18  C4  IQK A 701     -48.094   2.204 -10.870  1.00  0.00     0.029 C 
ATOM     19  C23 IQK A 701     -49.411   0.533 -11.991  1.00  0.00     0.029 C 
BRANCH  15  20
ATOM     20  O1  IQK A 701     -51.540   2.459  -9.676  1.00  0.00    -0.381 OA
ATOM     21  C1  IQK A 701     -52.887   2.211 -10.086  1.00  0.00     0.195 C 
ENDBRANCH  15  20
ENDBRANCH  13  14
BRANCH  13  22
ATOM     22  O5  IQK A 701     -45.716   1.182 -11.948  1.00  0.00    -0.285 OA
ATOM     23  H   UNL     1     -45.821   1.133 -10.965  1.00  0.00     0.243 HD
ENDBRANCH  13  22
BRANCH  13  24
ATOM     24  O6  IQK A 701     -46.814  -0.789 -12.543  1.00  0.00    -0.285 OA
ATOM     25  H   UNL     1     -46.800  -1.095 -11.602  1.00  0.00     0.243 HD
ENDBRANCH  13  24
ENDBRANCH  11  13
ENDBRANCH   1  11
BRANCH   8  26
ATOM     26  N2  IQK A 701     -45.176   6.136 -15.434  1.00  0.00    -0.216 NA
ATOM     27  H   UNL     1     -45.511   6.368 -16.380  1.00  0.00     0.147 HD
BRANCH  26  28
ATOM     28  S2  IQK A 701     -45.209   7.551 -14.668  1.00  0.00    -0.137 S 
BRANCH  28  29
ATOM     29  O3  IQK A 701     -45.174   8.562 -15.696  1.00  0.00    -0.285 OA
ATOM     30  H   UNL     1     -45.143   9.458 -15.277  1.00  0.00     0.243 HD
ENDBRANCH  28  29
BRANCH  28  31
ATOM     31  O4  IQK A 701     -43.966   7.578 -13.966  1.00  0.00    -0.285 OA
ATOM     32  H   UNL     1     -44.138   7.574 -12.991  1.00  0.00     0.243 HD
ENDBRANCH  28  31
BRANCH  28  33
ATOM     33  C14 IQK A 701     -46.382   7.857 -13.605  1.00  0.00     0.118 C 
ATOM     34  C15 IQK A 701     -47.324   8.863 -13.840  1.00  0.00     0.029 C 
ATOM     35  C20 IQK A 701     -46.413   7.133 -12.414  1.00  0.00     0.029 C 
ATOM     36  C16 IQK A 701     -48.310   9.125 -12.908  1.00  0.00     0.034 C 
ATOM     37  C19 IQK A 701     -47.398   7.395 -11.477  1.00  0.00     0.034 C 
ATOM     38  C17 IQK A 701     -48.355   8.387 -11.723  1.00  0.00     0.118 C 
BRANCH  38  39
ATOM     39  O2  IQK A 701     -49.355   8.683 -10.825  1.00  0.00    -0.381 OA
ATOM     40  C18 IQK A 701     -49.715   7.871  -9.701  1.00  0.00     0.195 C 
ENDBRANCH  38  39
ENDBRANCH  28  33
ENDBRANCH  26  28
ENDBRANCH   8  26
TORSDOF 12
