REMARK SMILES CC(C)c1ccc2c(c1)CCC1(C)CCC(C(C)C)CC21C(=O)O
REMARK SMILES IDX 4 1 5 2 6 3 7 4 8 5 9 6 10 7 11 8 12 9 13 10 14 11 15 12
REMARK SMILES IDX 16 13 20 14 21 15 2 16 1 17 3 18 22 19 23 20 24 21 17 23
REMARK SMILES IDX 18 24 19 25
REMARK H PARENT 24 22
ROOT
ATOM      1  C   UNL     1       3.373   0.874   0.617  1.00  0.00    -0.045 A 
ATOM      2  C   UNL     1       2.393   1.644   1.247  1.00  0.00     0.004 A 
ATOM      3  C   UNL     1       1.057   1.237   1.245  1.00  0.00     0.005 A 
ATOM      4  C   UNL     1       0.652   0.038   0.622  1.00  0.00    -0.027 A 
ATOM      5  C   UNL     1       1.630  -0.724  -0.042  1.00  0.00    -0.043 A 
ATOM      6  C   UNL     1       2.976  -0.307  -0.023  1.00  0.00     0.008 A 
ATOM      7  C   UNL     1       1.310  -2.013  -0.749  1.00  0.00     0.036 C 
ATOM      8  C   UNL     1      -0.179  -2.212  -1.008  1.00  0.00     0.013 C 
ATOM      9  C   UNL     1      -1.060  -1.873   0.228  1.00  0.00    -0.012 C 
ATOM     10  C   UNL     1      -0.640  -2.841   1.374  1.00  0.00     0.013 C 
ATOM     11  C   UNL     1      -2.546  -2.205  -0.104  1.00  0.00     0.008 C 
ATOM     12  C   UNL     1      -3.421  -1.055  -0.597  1.00  0.00     0.004 C 
ATOM     13  C   UNL     1      -2.646   0.042  -1.315  1.00  0.00    -0.007 C 
ATOM     14  C   UNL     1      -1.497   0.610  -0.455  1.00  0.00     0.028 C 
ATOM     15  C   UNL     1      -0.852  -0.355   0.604  1.00  0.00     0.099 C 
ENDROOT
BRANCH   1  16
ATOM     16  C   UNL     1       4.821   1.327   0.637  1.00  0.00     0.013 C 
ATOM     17  C   UNL     1       5.716   0.318   1.361  1.00  0.00     0.012 C 
ATOM     18  C   UNL     1       5.344   1.605  -0.775  1.00  0.00     0.012 C 
ENDBRANCH   1  16
BRANCH  15  19
ATOM     19  C   UNL     1      -1.455  -0.113   2.015  1.00  0.00     0.314 C 
ATOM     20  O   UNL     1      -0.930  -0.361   3.091  1.00  0.00    -0.251 OA
BRANCH  19  21
ATOM     21  O   UNL     1      -2.701   0.399   2.024  1.00  0.00    -0.481 OA
ATOM     22  H   UNL     1      -2.914   0.463   2.979  1.00  0.00     0.296 HD
ENDBRANCH  19  21
ENDBRANCH  15  19
BRANCH  13  23
ATOM     23  C   UNL     1      -3.584   1.134  -1.911  1.00  0.00    -0.014 C 
ATOM     24  C   UNL     1      -2.807   2.142  -2.765  1.00  0.00     0.007 C 
ATOM     25  C   UNL     1      -4.430   1.880  -0.875  1.00  0.00     0.007 C 
ENDBRANCH  13  23
TORSDOF 4
