REMARK SMILES CC1(C)CCC2(C1)CC1(CCCC3(CCC(O)C4(CCC(O)C(C)(C)C4C(=O)O)C3)C1)CC2O
REMARK SMILES IDX 1 1 2 2 3 3 4 4 5 5 6 6 7 7 33 8 32 9 9 10 8 11 10 12 11 13
REMARK SMILES IDX 12 14 13 15 31 16 14 17 15 18 16 19 18 20 30 21 19 22 20 23
REMARK SMILES IDX 21 24 23 25 24 26 25 27 26 28 34 29 17 31 27 33 28 34 29 35
REMARK SMILES IDX 22 37
REMARK H PARENT 34 30 17 32 29 36 22 38
ROOT
ATOM      1  C   UNL     1      -6.000  -2.442  -0.162  1.00  0.00     0.011 C 
ATOM      2  C   UNL     1      -4.725  -1.756   0.354  1.00  0.00    -0.035 C 
ATOM      3  C   UNL     1      -3.620  -2.809   0.495  1.00  0.00     0.011 C 
ATOM      4  C   UNL     1      -4.998  -1.062   1.703  1.00  0.00     0.007 C 
ATOM      5  C   UNL     1      -5.266   0.392   1.340  1.00  0.00     0.010 C 
ATOM      6  C   UNL     1      -4.249   0.679   0.235  1.00  0.00    -0.003 C 
ATOM      7  C   UNL     1      -4.304  -0.615  -0.613  1.00  0.00     0.016 C 
ATOM      8  C   UNL     1      -4.536   1.970  -0.533  1.00  0.00     0.121 C 
ATOM      9  C   UNL     1      -3.231   2.218  -1.277  1.00  0.00     0.039 C 
ATOM     10  C   UNL     1      -2.120   1.890  -0.249  1.00  0.00    -0.026 C 
ATOM     11  C   UNL     1      -2.823   0.941   0.775  1.00  0.00     0.016 C 
ATOM     12  C   UNL     1      -1.646   3.180   0.444  1.00  0.00     0.007 C 
ATOM     13  C   UNL     1      -0.533   2.947   1.465  1.00  0.00     0.001 C 
ATOM     14  C   UNL     1       0.265   1.664   1.236  1.00  0.00     0.007 C 
ATOM     15  C   UNL     1       0.475   1.311  -0.256  1.00  0.00    -0.028 C 
ATOM     16  C   UNL     1      -0.925   1.203  -0.961  1.00  0.00     0.014 C 
ATOM     17  C   UNL     1       1.320   2.380  -0.970  1.00  0.00     0.010 C 
ATOM     18  C   UNL     1       2.711   2.542  -0.374  1.00  0.00     0.033 C 
ATOM     19  C   UNL     1       3.438   1.237  -0.009  1.00  0.00     0.121 C 
ATOM     20  C   UNL     1       2.781  -0.096  -0.502  1.00  0.00     0.011 C 
ATOM     21  C   UNL     1       1.203  -0.060  -0.386  1.00  0.00     0.017 C 
ATOM     22  C   UNL     1       3.132  -0.242  -2.029  1.00  0.00     0.013 C 
ATOM     23  C   UNL     1       4.600  -0.580  -2.314  1.00  0.00     0.033 C 
ATOM     24  C   UNL     1       5.073  -1.844  -1.598  1.00  0.00     0.121 C 
ATOM     25  C   UNL     1       4.771  -1.865  -0.070  1.00  0.00     0.005 C 
ATOM     26  C   UNL     1       5.784  -0.965   0.667  1.00  0.00     0.015 C 
ATOM     27  C   UNL     1       5.027  -3.306   0.447  1.00  0.00     0.015 C 
ATOM     28  C   UNL     1       3.278  -1.448   0.180  1.00  0.00     0.116 C 
ENDROOT
BRANCH   8  29
ATOM     29  O   UNL     1      -5.630   1.858  -1.422  1.00  0.00    -0.393 OA
ATOM     30  H   UNL     1      -5.690   2.692  -1.919  1.00  0.00     0.210 HD
ENDBRANCH   8  29
BRANCH  19  31
ATOM     31  O   UNL     1       3.755   1.282   1.374  1.00  0.00    -0.393 OA
ATOM     32  H   UNL     1       3.068   0.822   1.896  1.00  0.00     0.210 HD
ENDBRANCH  19  31
BRANCH  28  33
ATOM     33  C   UNL     1       2.836  -1.593   1.637  1.00  0.00     0.307 C 
ATOM     34  O   UNL     1       2.653  -0.704   2.450  1.00  0.00    -0.252 OA
BRANCH  33  35
ATOM     35  O   UNL     1       2.555  -2.868   1.972  1.00  0.00    -0.481 OA
ATOM     36  H   UNL     1       2.271  -2.819   2.909  1.00  0.00     0.296 HD
ENDBRANCH  33  35
ENDBRANCH  28  33
BRANCH  24  37
ATOM     37  O   UNL     1       4.495  -2.974  -2.260  1.00  0.00    -0.393 OA
ATOM     38  H   UNL     1       3.530  -2.949  -2.161  1.00  0.00     0.210 HD
ENDBRANCH  24  37
TORSDOF 5
