REMARK SMILES CC1(C)CC2CCC3(C)C(CCC4(C)C3CC=C3C5(C)CCC(O)C(C)(C)C5CCC34C)C2CC1O
REMARK SMILES IDX 1 1 2 2 3 3 4 4 5 5 6 6 7 7 8 8 9 9 10 10 11 11 12 12 13 13
REMARK SMILES IDX 14 14 15 15 16 16 17 17 18 18 19 19 20 20 21 21 22 22 23 23
REMARK SMILES IDX 25 24 26 25 27 26 28 27 29 28 30 29 31 30 32 31 33 32 34 33
REMARK SMILES IDX 35 34 36 35 24 37
REMARK H PARENT 36 36 24 38
ROOT
ATOM      1  C   UNL     1       6.930   0.928  -1.334  1.00  0.00     0.014 C 
ATOM      2  C   UNL     1       6.826  -0.287  -0.391  1.00  0.00    -0.009 C 
ATOM      3  C   UNL     1       8.231  -0.935  -0.348  1.00  0.00     0.014 C 
ATOM      4  C   UNL     1       5.832  -1.349  -0.929  1.00  0.00     0.013 C 
ATOM      5  C   UNL     1       4.329  -1.049  -0.765  1.00  0.00    -0.007 C 
ATOM      6  C   UNL     1       3.750  -0.223  -1.919  1.00  0.00     0.004 C 
ATOM      7  C   UNL     1       2.249   0.050  -1.758  1.00  0.00     0.007 C 
ATOM      8  C   UNL     1       1.858   0.706  -0.397  1.00  0.00    -0.026 C 
ATOM      9  C   UNL     1       2.408   2.152  -0.407  1.00  0.00     0.012 C 
ATOM     10  C   UNL     1       2.467  -0.178   0.735  1.00  0.00    -0.001 C 
ATOM     11  C   UNL     1       2.039   0.301   2.126  1.00  0.00     0.005 C 
ATOM     12  C   UNL     1       0.524   0.175   2.291  1.00  0.00     0.008 C 
ATOM     13  C   UNL     1      -0.319   0.913   1.204  1.00  0.00    -0.020 C 
ATOM     14  C   UNL     1      -0.280   2.434   1.553  1.00  0.00     0.012 C 
ATOM     15  C   UNL     1       0.276   0.651  -0.231  1.00  0.00     0.006 C 
ATOM     16  C   UNL     1      -0.501   1.476  -1.272  1.00  0.00     0.032 C 
ATOM     17  C   UNL     1      -1.987   1.350  -1.127  1.00  0.00    -0.026 C 
ATOM     18  C   UNL     1      -2.651   0.845  -0.064  1.00  0.00    -0.061 C 
ATOM     19  C   UNL     1      -4.190   0.534  -0.133  1.00  0.00    -0.008 C 
ATOM     20  C   UNL     1      -4.933   1.681   0.608  1.00  0.00     0.016 C 
ATOM     21  C   UNL     1      -4.736   0.529  -1.594  1.00  0.00     0.014 C 
ATOM     22  C   UNL     1      -6.212   0.148  -1.745  1.00  0.00     0.033 C 
ATOM     23  C   UNL     1      -6.764  -0.702  -0.603  1.00  0.00     0.120 C 
ATOM     24  C   UNL     1      -5.714  -1.691  -0.053  1.00  0.00    -0.006 C 
ATOM     25  C   UNL     1      -6.354  -2.497   1.107  1.00  0.00     0.014 C 
ATOM     26  C   UNL     1      -5.345  -2.728  -1.146  1.00  0.00     0.014 C 
ATOM     27  C   UNL     1      -4.469  -0.887   0.518  1.00  0.00     0.007 C 
ATOM     28  C   UNL     1      -3.191  -1.758   0.521  1.00  0.00     0.006 C 
ATOM     29  C   UNL     1      -1.986  -1.152   1.255  1.00  0.00     0.012 C 
ATOM     30  C   UNL     1      -1.878   0.402   1.213  1.00  0.00    -0.005 C 
ATOM     31  C   UNL     1      -2.540   0.943   2.514  1.00  0.00     0.017 C 
ATOM     32  C   UNL     1       3.983  -0.493   0.631  1.00  0.00    -0.002 C 
ATOM     33  C   UNL     1       4.940   0.615   1.099  1.00  0.00     0.036 C 
ATOM     34  C   UNL     1       6.408   0.173   1.027  1.00  0.00     0.120 C 
ENDROOT
BRANCH  34  35
ATOM     35  O   UNL     1       6.607  -0.892   1.961  1.00  0.00    -0.393 OA
ATOM     36  H   UNL     1       6.375  -0.556   2.843  1.00  0.00     0.210 HD
ENDBRANCH  34  35
BRANCH  23  37
ATOM     37  O   UNL     1      -7.929  -1.385  -1.065  1.00  0.00    -0.393 OA
ATOM     38  H   UNL     1      -8.556  -0.713  -1.385  1.00  0.00     0.210 HD
ENDBRANCH  23  37
TORSDOF 2
