REMARK SMILES CCC(C)C(C)CC(O)C1CCC2(C)C1CCC1C3CCC(C(=O)O)C3(C)CCC12
REMARK SMILES IDX 7 1 5 2 6 3 3 4 4 5 2 6 1 7 8 8 9 9 10 11 11 12 15 13 12 14
REMARK SMILES IDX 13 15 16 16 30 17 17 18 18 19 29 20 19 21 28 22 26 23 20 24
REMARK SMILES IDX 22 25 21 26 14 27 27 28 23 29 24 30 25 31
REMARK H PARENT 9 10 25 32
ROOT
ATOM      1  C   UNL     1       3.989   0.776  -0.455  1.00  0.00     0.035 C 
ENDROOT
BRANCH   1   2
ATOM      2  C   UNL     1       4.683  -0.571  -0.769  1.00  0.00    -0.009 C 
ATOM      3  C   UNL     1       4.744  -0.849  -2.278  1.00  0.00     0.008 C 
BRANCH   2   4
ATOM      4  C   UNL     1       6.116  -0.674  -0.145  1.00  0.00    -0.012 C 
ATOM      5  C   UNL     1       6.041  -0.768   1.387  1.00  0.00     0.008 C 
BRANCH   4   6
ATOM      6  C   UNL     1       7.062   0.460  -0.594  1.00  0.00    -0.000 C 
ATOM      7  C   UNL     1       8.507   0.251  -0.159  1.00  0.00     0.004 C 
ENDBRANCH   4   6
ENDBRANCH   2   4
ENDBRANCH   1   2
BRANCH   1   8
ATOM      8  C   UNL     1       2.475   0.902  -0.727  1.00  0.00     0.118 C 
BRANCH   8   9
ATOM      9  O   UNL     1       2.218   0.785  -2.120  1.00  0.00    -0.393 OA
ATOM     10  H   UNL     1       1.282   0.990  -2.274  1.00  0.00     0.210 HD
ENDBRANCH   8   9
BRANCH   8  11
ATOM     11  C   UNL     1       1.594  -0.046   0.114  1.00  0.00     0.021 C 
ATOM     12  C   UNL     1       1.429  -1.484  -0.439  1.00  0.00     0.007 C 
ATOM     13  C   UNL     1       0.132   0.432   0.235  1.00  0.00     0.001 C 
ATOM     14  C   UNL     1      -0.074  -1.820  -0.389  1.00  0.00     0.008 C 
ATOM     15  C   UNL     1      -0.669  -0.830   0.623  1.00  0.00    -0.026 C 
ATOM     16  C   UNL     1      -0.143   1.610   1.168  1.00  0.00     0.005 C 
ATOM     17  C   UNL     1      -2.208  -0.547   0.561  1.00  0.00    -0.001 C 
ATOM     18  C   UNL     1      -1.649   1.779   1.445  1.00  0.00     0.004 C 
ATOM     19  C   UNL     1      -2.520   0.972   0.464  1.00  0.00    -0.004 C 
ATOM     20  C   UNL     1      -2.990  -1.294  -0.524  1.00  0.00     0.005 C 
ATOM     21  C   UNL     1      -4.025   1.268   0.597  1.00  0.00    -0.001 C 
ATOM     22  C   UNL     1      -4.499  -1.062  -0.364  1.00  0.00     0.008 C 
ATOM     23  C   UNL     1      -4.911   0.435  -0.369  1.00  0.00    -0.016 C 
ATOM     24  C   UNL     1      -4.630   1.027   1.987  1.00  0.00     0.005 C 
ATOM     25  C   UNL     1      -6.318   0.685   0.237  1.00  0.00     0.105 C 
ATOM     26  C   UNL     1      -6.089   0.639   1.754  1.00  0.00     0.016 C 
ATOM     27  C   UNL     1      -0.344  -1.338   2.056  1.00  0.00     0.012 C 
ATOM     28  C   UNL     1      -4.833   0.993  -1.802  1.00  0.00     0.012 C 
BRANCH  25  29
ATOM     29  C   UNL     1      -7.414  -0.252  -0.228  1.00  0.00     0.307 C 
ATOM     30  O   UNL     1      -7.471  -0.848  -1.291  1.00  0.00    -0.252 OA
BRANCH  29  31
ATOM     31  O   UNL     1      -8.446  -0.328   0.635  1.00  0.00    -0.481 OA
ATOM     32  H   UNL     1      -9.084  -0.922   0.187  1.00  0.00     0.296 HD
ENDBRANCH  29  31
ENDBRANCH  25  29
ENDBRANCH   8  11
ENDBRANCH   1   8
TORSDOF 8
