REMARK SMILES COC1=C(OC)C2C(=C1)CC(O)C(CO)c1cc(OC)ccc12
REMARK SMILES IDX 16 1 17 2 18 3 21 4 22 5 23 6 7 7 3 8 9 9 4 10 8 11 2 12
REMARK SMILES IDX 1 13 5 14 6 15 10 16 13 18 11 19 12 21 14 23 15 24 19 26
REMARK SMILES IDX 20 27
REMARK H PARENT 12 22 15 25
REMARK Flexibility Score:    7.900
ROOT
ATOM      1  C   UNL     1      -1.359  -0.561  -0.209  1.00  0.00    -0.032 A 
ATOM      2  C   UNL     1      -2.593   0.109  -0.051  1.00  0.00     0.051 A 
ATOM      3  C   UNL     1      -2.680   1.498   0.067  1.00  0.00     0.119 A 
ATOM      4  C   UNL     1      -1.516   2.247   0.050  1.00  0.00     0.047 A 
ATOM      5  C   UNL     1      -0.280   1.608  -0.076  1.00  0.00     0.009 A 
ATOM      6  C   UNL     1      -0.168   0.207  -0.209  1.00  0.00    -0.029 A 
ENDROOT
BRANCH   6   7
ATOM      7  C   UNL     1       1.204  -0.470  -0.319  1.00  0.00     0.115 C 
ATOM      8  C   UNL     1       3.108   0.229   0.875  1.00  0.00     0.157 C 
ATOM      9  C   UNL     1       2.538  -0.896   1.570  1.00  0.00     0.050 C 
ATOM     10  C   UNL     1       2.412   0.463  -0.256  1.00  0.00     0.149 C 
ATOM     11  C   UNL     1       1.480  -1.363   0.884  1.00  0.00    -0.049 C 
BRANCH   8  12
ATOM     12  O   UNL     1       4.227   0.780   1.411  1.00  0.00    -0.493 OA
ATOM     13  C   UNL     1       4.791   1.878   0.705  1.00  0.00     0.278 C 
ENDBRANCH   8  12
BRANCH  10  14
ATOM     14  O   UNL     1       2.710   1.403  -1.211  1.00  0.00    -0.496 OA
ATOM     15  C   UNL     1       2.454   0.980  -2.547  1.00  0.00     0.278 C 
ENDBRANCH  10  14
BRANCH  11  16
ATOM     16  C   UNL     1       0.794  -2.668   1.124  1.00  0.00     0.064 CG0
ATOM     17  G   UNL     1      -0.738  -2.708   1.012  1.00  0.00     0.000 G0
ENDBRANCH  11  16
ENDBRANCH   6   7
BRANCH   1  18
ATOM     18  C   UNL     1      -1.298  -2.093  -0.296  1.00  0.00     0.074 C 
BRANCH  18  19
ATOM     19  C   UNL     1      -0.738  -2.708   1.012  1.00  0.00     0.128 CG0
ATOM     20  G   UNL     1       0.794  -2.668   1.124  1.00  0.00     0.000 G0
BRANCH  19  21
ATOM     21  O   UNL     1      -1.349  -2.151   2.176  1.00  0.00    -0.392 OA
ATOM     22  H   UNL     1      -1.045  -1.227   2.255  1.00  0.00     0.210 HD
ENDBRANCH  19  21
ENDBRANCH  18  19
BRANCH  18  23
ATOM     23  C   UNL     1      -2.625  -2.798  -0.661  1.00  0.00     0.167 C 
BRANCH  23  24
ATOM     24  O   UNL     1      -3.021  -2.491  -1.998  1.00  0.00    -0.396 OA
ATOM     25  H   UNL     1      -3.145  -1.528  -2.060  1.00  0.00     0.210 HD
ENDBRANCH  23  24
ENDBRANCH  18  23
ENDBRANCH   1  18
BRANCH   3  26
ATOM     26  O   UNL     1      -3.951   1.983   0.198  1.00  0.00    -0.497 OA
ATOM     27  C   UNL     1      -4.089   3.389   0.360  1.00  0.00     0.278 C 
ENDBRANCH   3  26
TORSDOF 6
