REMARK SMILES CC1=C(C)C2CCC3(C)C(CCC4(C)C(C(=O)O)CC1=CCC34)C2
REMARK SMILES IDX 5 1 6 2 7 3 8 4 9 5 10 6 24 7 11 8 12 9 13 10 14 11 23 12
REMARK SMILES IDX 3 14 2 15 1 16 4 17 20 18 21 19 19 20 22 22 15 24 16 26
REMARK SMILES IDX 17 27 18 28
REMARK H PARENT 18 29
REMARK Flexibility Score:   13.800
ROOT
ATOM      1  C   UNL     1       2.042  -1.707   0.500  1.00  0.00     0.015 C 
ATOM      2  C   UNL     1       1.697  -2.249  -0.895  1.00  0.00     0.008 C 
ATOM      3  C   UNL     1       0.208  -2.442  -1.211  1.00  0.00     0.008 C 
ATOM      4  C   UNL     1      -0.866  -1.596  -0.449  1.00  0.00    -0.026 C 
ATOM      5  C   UNL     1      -2.042  -2.607  -0.250  1.00  0.00     0.012 C 
ATOM      6  C   UNL     1      -0.348  -1.092   0.912  1.00  0.00    -0.004 C 
ATOM      7  C   UNL     1       0.846  -1.833   1.481  1.00  0.00     0.012 C 
ATOM      8  C   UNL     1      -1.440  -0.649   1.865  1.00  0.00     0.005 C 
ATOM      9  C   UNL     1      -2.472   0.234   1.142  1.00  0.00     0.008 C 
ATOM     10  C   UNL     1      -2.082   0.801  -0.274  1.00  0.00    -0.015 C 
ATOM     11  C   UNL     1      -3.438   1.209  -0.939  1.00  0.00     0.012 C 
ATOM     12  C   UNL     1      -1.450  -0.327  -1.234  1.00  0.00     0.006 CG0
ATOM     13  G   UNL     1      -0.529   0.293  -2.328  1.00  0.00     0.000 G0
ENDROOT
BRANCH   1  14
ATOM     14  C   UNL     1       2.829  -0.346   0.480  1.00  0.00    -0.067 C 
ATOM     15  C   UNL     1       2.502   0.857  -0.089  1.00  0.00    -0.049 C 
ATOM     16  C   UNL     1       3.427   2.055  -0.103  1.00  0.00     0.044 C 
ATOM     17  C   UNL     1       4.145  -0.499   1.230  1.00  0.00     0.040 C 
BRANCH  15  18
ATOM     18  C   UNL     1       1.201   1.167  -0.706  1.00  0.00    -0.048 C 
ATOM     19  C   UNL     1       0.863   0.586  -1.867  1.00  0.00    -0.023 C 
BRANCH  18  20
ATOM     20  C   UNL     1       0.289   2.036   0.155  1.00  0.00     0.051 CG1
ATOM     21  G   UNL     1      -1.210   2.130  -0.207  1.00  0.00     0.000 G1
ENDBRANCH  18  20
BRANCH  19  22
ATOM     22  C   UNL     1      -0.529   0.293  -2.328  1.00  0.00     0.032 CG0
ATOM     23  G   UNL     1      -1.450  -0.327  -1.234  1.00  0.00     0.000 G0
ENDBRANCH  19  22
ENDBRANCH  15  18
ENDBRANCH   1  14
BRANCH  10  24
ATOM     24  C   UNL     1      -1.210   2.130  -0.207  1.00  0.00     0.109 CG1
ATOM     25  G   UNL     1       0.289   2.036   0.155  1.00  0.00     0.000 G1
BRANCH  24  26
ATOM     26  C   UNL     1      -1.846   3.211   0.659  1.00  0.00     0.307 C 
ATOM     27  O   UNL     1      -2.651   4.046   0.277  1.00  0.00    -0.252 OA
BRANCH  26  28
ATOM     28  O   UNL     1      -1.477   3.186   1.952  1.00  0.00    -0.481 OA
ATOM     29  H   UNL     1      -1.985   3.920   2.357  1.00  0.00     0.296 HD
ENDBRANCH  26  28
ENDBRANCH  24  26
ENDBRANCH  10  24
TORSDOF 2
