REMARK SMILES COc1cc2c(c(OC)c1OC)-c1c(cc3c(c1OC)OCO3)C[C@H](C)[C@](C)(O)C2
REMARK SMILES IDX 6 1 7 2 10 3 3 4 4 5 5 6 30 7 27 8 28 9 25 10 26 11 29 13
REMARK SMILES IDX 13 15 18 16 14 17 17 18 15 19 16 20 21 21 23 22 22 23 19 24
REMARK SMILES IDX 20 25 24 26 2 28 1 29 8 30 9 31 11 32 12 33
REMARK H PARENT 29 14
REMARK Flexibility Score:   11.900
ROOT
ATOM      1  C   UNL     1      -0.501   0.233  -0.253  1.00  0.00     0.035 A 
ATOM      2  C   UNL     1      -1.889   0.306   0.031  1.00  0.00     0.172 A 
ATOM      3  C   UNL     1      -2.512   1.520   0.359  1.00  0.00     0.203 A 
ATOM      4  C   UNL     1      -1.745   2.684   0.386  1.00  0.00     0.164 A 
ATOM      5  C   UNL     1      -0.365   2.622   0.192  1.00  0.00     0.055 A 
ATOM      6  C   UNL     1       0.275   1.406  -0.119  1.00  0.00    -0.029 A 
ENDROOT
BRANCH   6   7
ATOM      7  C   UNL     1       1.782   1.412  -0.303  1.00  0.00     0.071 C 
BRANCH   7   8
ATOM      8  C   UNL     1       2.637   1.163   0.980  1.00  0.00     0.069 C 
ATOM      9  C   UNL     1       4.018   1.811   0.740  1.00  0.00     0.042 C 
BRANCH   8  10
ATOM     10  C   UNL     1       2.815  -0.348   1.354  1.00  0.00     0.022 CG0
ATOM     11  C   UNL     1       3.617  -0.538   2.657  1.00  0.00     0.011 C 
ATOM     12  G   UNL     1       1.484  -1.122   1.509  1.00  0.00     0.000 G0
ENDBRANCH   8  10
BRANCH   8  13
ATOM     13  O   UNL     1       2.068   1.842   2.108  1.00  0.00    -0.390 OA
ATOM     14  H   UNL     1       1.922   2.771   1.862  1.00  0.00     0.211 HD
ENDBRANCH   8  13
ENDBRANCH   7   8
ENDBRANCH   6   7
BRANCH   1  15
ATOM     15  C   UNL     1       0.115  -1.048  -0.666  1.00  0.00     0.035 A 
ATOM     16  C   UNL     1      -0.206  -1.624  -1.922  1.00  0.00     0.173 A 
ATOM     17  C   UNL     1       1.030  -1.723   0.192  1.00  0.00    -0.032 A 
ATOM     18  C   UNL     1       0.371  -2.834  -2.272  1.00  0.00     0.208 A 
ATOM     19  C   UNL     1       1.585  -2.957  -0.198  1.00  0.00     0.055 A 
ATOM     20  C   UNL     1       1.236  -3.480  -1.423  1.00  0.00     0.170 A 
ATOM     21  O   UNL     1       0.210  -3.514  -3.442  1.00  0.00    -0.450 OA
ATOM     22  O   UNL     1       1.711  -4.646  -1.940  1.00  0.00    -0.453 OA
ATOM     23  C   UNL     1       1.054  -4.659  -3.221  1.00  0.00     0.468 C 
BRANCH  16  24
ATOM     24  O   UNL     1      -1.006  -0.911  -2.778  1.00  0.00    -0.492 OA
ATOM     25  C   UNL     1      -2.101  -1.670  -3.284  1.00  0.00     0.278 C 
ENDBRANCH  16  24
BRANCH  17  26
ATOM     26  C   UNL     1       1.484  -1.122   1.509  1.00  0.00     0.042 CG0
ATOM     27  G   UNL     1       2.815  -0.348   1.354  1.00  0.00     0.000 G0
ENDBRANCH  17  26
ENDBRANCH   1  15
BRANCH   4  28
ATOM     28  O   UNL     1      -2.280   3.922   0.633  1.00  0.00    -0.493 OA
ATOM     29  C   UNL     1      -2.930   4.413  -0.542  1.00  0.00     0.278 C 
ENDBRANCH   4  28
BRANCH   2  30
ATOM     30  O   UNL     1      -2.657  -0.838  -0.059  1.00  0.00    -0.492 OA
ATOM     31  C   UNL     1      -2.786  -1.448   1.225  1.00  0.00     0.278 C 
ENDBRANCH   2  30
BRANCH   3  32
ATOM     32  O   UNL     1      -3.867   1.508   0.582  1.00  0.00    -0.490 OA
ATOM     33  C   UNL     1      -4.218   2.060   1.851  1.00  0.00     0.278 C 
ENDBRANCH   3  32
TORSDOF 5
