REMARK SMILES COc1cc([C@H]2OC[C@H]3[C@@H]2CO[C@@H]3c2ccc(O)c(OC)c2)ccc1O
REMARK SMILES IDX 6 1 10 2 11 3 12 4 13 5 9 6 8 7 7 8 5 9 3 10 25 11 4 12
REMARK SMILES IDX 24 13 23 14 2 15 1 16 26 17 14 19 22 20 15 21 19 22 16 23
REMARK SMILES IDX 17 24 20 25 21 26 18 27
REMARK H PARENT 26 18 18 28
ROOT
ATOM      1  C   UNL     1       1.304  -0.922  -0.846  1.00  0.00     0.154 C 
ATOM      2  C   UNL     1       0.454   0.301  -0.489  1.00  0.00     0.057 C 
ATOM      3  C   UNL     1      -0.549   0.688  -1.546  1.00  0.00     0.168 C 
ATOM      4  O   UNL     1      -1.668  -0.196  -1.403  1.00  0.00    -0.373 OA
ATOM      5  C   UNL     1      -1.586  -0.854  -0.120  1.00  0.00     0.154 C 
ATOM      6  C   UNL     1      -0.413  -0.211   0.628  1.00  0.00     0.057 C 
ATOM      7  C   UNL     1       0.486  -1.196   1.332  1.00  0.00     0.168 C 
ATOM      8  O   UNL     1       1.357  -1.749   0.337  1.00  0.00    -0.373 OA
ENDROOT
BRANCH   1   9
ATOM      9  C   UNL     1       2.695  -0.539  -1.309  1.00  0.00    -0.015 A 
ATOM     10  C   UNL     1       5.039  -0.057  -0.845  1.00  0.00     0.160 A 
ATOM     11  C   UNL     1       5.221   0.236  -2.200  1.00  0.00     0.157 A 
ATOM     12  C   UNL     1       3.771  -0.439  -0.404  1.00  0.00     0.056 A 
ATOM     13  C   UNL     1       4.178   0.146  -3.110  1.00  0.00     0.050 A 
ATOM     14  C   UNL     1       2.915  -0.242  -2.665  1.00  0.00     0.010 A 
BRANCH  10  15
ATOM     15  O   UNL     1       6.162   0.074  -0.068  1.00  0.00    -0.493 OA
ATOM     16  C   UNL     1       6.037  -0.312   1.296  1.00  0.00     0.278 C 
ENDBRANCH  10  15
BRANCH  11  17
ATOM     17  O   UNL     1       6.451   0.621  -2.662  1.00  0.00    -0.504 OA
ATOM     18  H   UNL     1       7.028   0.607  -1.875  1.00  0.00     0.293 HD
ENDBRANCH  11  17
ENDBRANCH   1   9
BRANCH   5  19
ATOM     19  C   UNL     1      -2.889  -0.731   0.642  1.00  0.00    -0.015 A 
ATOM     20  C   UNL     1      -3.759   0.359   0.443  1.00  0.00     0.056 A 
ATOM     21  C   UNL     1      -3.226  -1.707   1.596  1.00  0.00     0.010 A 
ATOM     22  C   UNL     1      -4.942   0.469   1.175  1.00  0.00     0.160 A 
ATOM     23  C   UNL     1      -4.403  -1.600   2.335  1.00  0.00     0.050 A 
ATOM     24  C   UNL     1      -5.244  -0.517   2.120  1.00  0.00     0.157 A 
BRANCH  22  25
ATOM     25  O   UNL     1      -5.869   1.475   1.072  1.00  0.00    -0.493 OA
ATOM     26  C   UNL     1      -5.645   2.442   0.052  1.00  0.00     0.278 C 
ENDBRANCH  22  25
BRANCH  24  27
ATOM     27  O   UNL     1      -6.393  -0.434   2.859  1.00  0.00    -0.504 OA
ATOM     28  H   UNL     1      -6.833   0.380   2.546  1.00  0.00     0.293 HD
ENDBRANCH  24  27
ENDBRANCH   5  19
TORSDOF 6
