REMARK SMILES CC1CCC2(CCCC3(CC(O)C4(CCC(C)(C)C4)C3)C2)CC12CCC(O)C(C)(C)C2C(=O)O
REMARK SMILES IDX 17 1 16 2 18 3 15 4 14 5 13 6 19 7 11 8 10 9 9 10 20 11 8 12
REMARK SMILES IDX 7 13 6 14 5 15 21 16 4 17 3 18 2 19 1 20 23 21 22 22 24 23
REMARK SMILES IDX 25 24 26 25 28 26 29 27 30 28 31 29 12 30 32 32 33 33 34 34
REMARK SMILES IDX 27 36
REMARK H PARENT 12 31 34 35 27 37
ROOT
ATOM      1  C   UNL     1       7.639  -0.277  -0.211  1.00  0.00     0.011 C 
ATOM      2  C   UNL     1       6.451  -0.575   0.718  1.00  0.00    -0.035 C 
ATOM      3  C   UNL     1       6.794  -0.087   2.131  1.00  0.00     0.011 C 
ATOM      4  C   UNL     1       6.137  -2.085   0.722  1.00  0.00     0.007 C 
ATOM      5  C   UNL     1       4.992  -2.241  -0.267  1.00  0.00     0.010 C 
ATOM      6  C   UNL     1       4.118  -1.016   0.009  1.00  0.00    -0.003 C 
ATOM      7  C   UNL     1       5.166   0.108   0.177  1.00  0.00     0.016 C 
ATOM      8  C   UNL     1       3.197  -1.128   1.235  1.00  0.00     0.121 C 
ATOM      9  C   UNL     1       2.170  -0.010   1.031  1.00  0.00     0.039 C 
ATOM     10  C   UNL     1       1.994   0.148  -0.508  1.00  0.00    -0.026 C 
ATOM     11  C   UNL     1       3.109  -0.749  -1.115  1.00  0.00     0.016 C 
ATOM     12  C   UNL     1       2.176   1.608  -0.947  1.00  0.00     0.007 C 
ATOM     13  C   UNL     1       1.118   2.544  -0.372  1.00  0.00     0.001 C 
ATOM     14  C   UNL     1      -0.205   1.863  -0.015  1.00  0.00     0.007 C 
ATOM     15  C   UNL     1      -0.588   0.679  -0.930  1.00  0.00    -0.029 C 
ATOM     16  C   UNL     1       0.604  -0.351  -0.985  1.00  0.00     0.014 C 
ATOM     17  C   UNL     1      -0.898   1.168  -2.369  1.00  0.00     0.007 C 
ATOM     18  C   UNL     1      -2.229   1.905  -2.492  1.00  0.00     0.004 C 
ATOM     19  C   UNL     1      -3.435   1.061  -2.019  1.00  0.00    -0.007 C 
ATOM     20  C   UNL     1      -3.706  -0.034  -3.064  1.00  0.00     0.008 C 
ATOM     21  C   UNL     1      -3.264   0.541  -0.531  1.00  0.00    -0.013 C 
ATOM     22  C   UNL     1      -1.839  -0.098  -0.401  1.00  0.00     0.015 C 
ATOM     23  C   UNL     1      -3.388   1.775   0.427  1.00  0.00     0.011 C 
ATOM     24  C   UNL     1      -4.819   2.085   0.849  1.00  0.00     0.033 C 
ATOM     25  C   UNL     1      -5.450   0.966   1.676  1.00  0.00     0.121 C 
ATOM     26  C   UNL     1      -4.896  -0.458   1.362  1.00  0.00     0.004 C 
ATOM     27  C   UNL     1      -3.789  -0.880   2.356  1.00  0.00     0.015 C 
ATOM     28  C   UNL     1      -6.070  -1.451   1.582  1.00  0.00     0.015 C 
ATOM     29  C   UNL     1      -4.428  -0.490  -0.142  1.00  0.00     0.114 C 
ENDROOT
BRANCH   8  30
ATOM     30  O   UNL     1       2.495  -2.367   1.256  1.00  0.00    -0.393 OA
ATOM     31  H   UNL     1       3.114  -3.049   1.567  1.00  0.00     0.210 HD
ENDBRANCH   8  30
BRANCH  29  32
ATOM     32  C   UNL     1      -4.206  -1.936  -0.588  1.00  0.00     0.307 C 
ATOM     33  O   UNL     1      -3.326  -2.704  -0.243  1.00  0.00    -0.252 OA
BRANCH  32  34
ATOM     34  O   UNL     1      -5.179  -2.375  -1.414  1.00  0.00    -0.481 OA
ATOM     35  H   UNL     1      -4.926  -3.305  -1.594  1.00  0.00     0.296 HD
ENDBRANCH  32  34
ENDBRANCH  29  32
BRANCH  25  36
ATOM     36  O   UNL     1      -5.305   1.295   3.057  1.00  0.00    -0.393 OA
ATOM     37  H   UNL     1      -5.832   0.660   3.571  1.00  0.00     0.210 HD
ENDBRANCH  25  36
TORSDOF 4
