REMARK SMILES CC1(C)CCC2(CCC3(CC(=O)CC4(CCC(O)C5(CCCCC5(C)C(=O)O)C4)C3)C2)C1
REMARK SMILES IDX 1 1 2 2 3 3 4 4 5 5 6 6 32 7 7 8 8 9 9 10 31 11 10 12 11 13
REMARK SMILES IDX 12 14 13 15 14 16 30 17 15 18 16 19 17 20 19 21 29 22 20 23
REMARK SMILES IDX 21 24 22 25 23 26 24 27 25 28 18 29 26 31 27 32 28 33
REMARK H PARENT 18 30 28 34
ROOT
ATOM      1  C   UNL     1       4.366  -1.957  -3.257  1.00  0.00     0.011 C 
ATOM      2  C   UNL     1       4.507  -1.215  -1.925  1.00  0.00    -0.035 C 
ATOM      3  C   UNL     1       5.932  -0.647  -1.820  1.00  0.00     0.011 C 
ATOM      4  C   UNL     1       4.171  -2.127  -0.742  1.00  0.00     0.007 C 
ATOM      5  C   UNL     1       3.857  -1.167   0.401  1.00  0.00     0.007 C 
ATOM      6  C   UNL     1       3.216   0.079  -0.255  1.00  0.00    -0.029 C 
ATOM      7  C   UNL     1       3.446  -0.111  -1.779  1.00  0.00     0.013 C 
ATOM      8  C   UNL     1       3.844   1.387   0.275  1.00  0.00     0.007 C 
ATOM      9  C   UNL     1       2.670   2.331   0.500  1.00  0.00     0.008 C 
ATOM     10  C   UNL     1       1.545   1.416   1.019  1.00  0.00    -0.022 C 
ATOM     11  C   UNL     1       1.700   0.215   0.062  1.00  0.00     0.014 C 
ATOM     12  C   UNL     1       1.797   1.034   2.493  1.00  0.00     0.082 C 
ATOM     13  C   UNL     1       0.522   0.720   3.241  1.00  0.00     0.134 C 
ATOM     14  O   UNL     1       0.484   0.752   4.472  1.00  0.00    -0.300 OA
ATOM     15  C   UNL     1      -0.673   0.272   2.434  1.00  0.00     0.082 C 
ATOM     16  C   UNL     1      -1.072   1.287   1.340  1.00  0.00    -0.022 C 
ATOM     17  C   UNL     1       0.182   2.129   0.906  1.00  0.00     0.015 C 
ATOM     18  C   UNL     1      -2.115   2.295   1.893  1.00  0.00     0.010 C 
ATOM     19  C   UNL     1      -3.528   1.731   2.028  1.00  0.00     0.033 C 
ATOM     20  C   UNL     1      -4.046   1.157   0.707  1.00  0.00     0.121 C 
ATOM     21  C   UNL     1      -3.143   0.027   0.125  1.00  0.00     0.013 C 
ATOM     22  C   UNL     1      -1.669   0.576   0.076  1.00  0.00     0.018 C 
ATOM     23  C   UNL     1      -3.246  -1.218   1.068  1.00  0.00     0.011 C 
ATOM     24  C   UNL     1      -2.496  -2.454   0.576  1.00  0.00     0.001 C 
ATOM     25  C   UNL     1      -2.924  -2.870  -0.821  1.00  0.00     0.001 C 
ATOM     26  C   UNL     1      -2.850  -1.705  -1.801  1.00  0.00     0.019 C 
ATOM     27  C   UNL     1      -3.635  -0.441  -1.338  1.00  0.00     0.073 C 
ATOM     28  C   UNL     1      -5.150  -0.802  -1.351  1.00  0.00     0.024 C 
ENDROOT
BRANCH  20  29
ATOM     29  O   UNL     1      -4.120   2.231  -0.225  1.00  0.00    -0.393 OA
ATOM     30  H   UNL     1      -4.845   2.819   0.050  1.00  0.00     0.210 HD
ENDBRANCH  20  29
BRANCH  27  31
ATOM     31  C   UNL     1      -3.479   0.626  -2.442  1.00  0.00     0.310 C 
ATOM     32  O   UNL     1      -4.368   1.289  -2.957  1.00  0.00    -0.252 OA
BRANCH  31  33
ATOM     33  O   UNL     1      -2.221   0.765  -2.908  1.00  0.00    -0.481 OA
ATOM     34  H   UNL     1      -2.315   1.477  -3.574  1.00  0.00     0.296 HD
ENDBRANCH  31  33
ENDBRANCH  27  31
TORSDOF 3
