REMARK SMILES COc1ccc(CC(C)CCc2cc(OC)c(C)c(OC)c2C)cc1OC
REMARK SMILES IDX 8 1 9 2 7 3 6 4 25 5 24 6 3 7 4 8 5 9 26 10 27 11 2 12 1 13
REMARK SMILES IDX 10 14 11 15 12 16 13 17 22 18 14 19 19 20 17 21 23 22 18 23
REMARK SMILES IDX 15 24 16 25 20 26 21 27
REMARK H PARENT
ROOT
ATOM      1  C   UNL     1       0.573  -0.765  -0.834  1.00  0.00    -0.010 C 
ATOM      2  C   UNL     1       1.417  -1.297  -1.999  1.00  0.00     0.008 C 
ENDROOT
BRANCH   1   3
ATOM      3  C   UNL     1       1.180  -1.137   0.538  1.00  0.00     0.039 C 
BRANCH   3   4
ATOM      4  C   UNL     1       2.551  -0.578   0.845  1.00  0.00    -0.044 A 
ATOM      5  C   UNL     1       4.984  -0.763   0.722  1.00  0.00     0.160 A 
ATOM      6  C   UNL     1       3.707  -1.270   0.448  1.00  0.00     0.054 A 
ATOM      7  C   UNL     1       5.113   0.455   1.417  1.00  0.00     0.160 A 
ATOM      8  C   UNL     1       3.964   1.140   1.822  1.00  0.00     0.051 A 
ATOM      9  C   UNL     1       2.695   0.626   1.539  1.00  0.00     0.008 A 
BRANCH   5  10
ATOM     10  O   UNL     1       6.157  -1.379   0.361  1.00  0.00    -0.493 OA
ATOM     11  C   UNL     1       6.067  -2.574  -0.400  1.00  0.00     0.278 C 
ENDBRANCH   5  10
BRANCH   7  12
ATOM     12  O   UNL     1       6.396   0.886   1.650  1.00  0.00    -0.493 OA
ATOM     13  C   UNL     1       6.563   2.114   2.342  1.00  0.00     0.278 C 
ENDBRANCH   7  12
ENDBRANCH   3   4
ENDBRANCH   1   3
BRANCH   1  14
ATOM     14  C   UNL     1       0.305   0.743  -1.035  1.00  0.00     0.008 C 
BRANCH  14  15
ATOM     15  C   UNL     1      -0.719   1.368  -0.077  1.00  0.00     0.036 C 
BRANCH  15  16
ATOM     16  C   UNL     1      -2.124   0.811  -0.206  1.00  0.00    -0.038 A 
ATOM     17  C   UNL     1      -2.575  -0.072   0.797  1.00  0.00     0.051 A 
ATOM     18  C   UNL     1      -2.983   1.127  -1.279  1.00  0.00    -0.005 A 
ATOM     19  C   UNL     1      -3.829  -0.685   0.728  1.00  0.00     0.125 A 
ATOM     20  C   UNL     1      -4.259   0.523  -1.322  1.00  0.00     0.128 A 
ATOM     21  C   UNL     1      -4.673  -0.417  -0.361  1.00  0.00     0.033 A 
ATOM     22  C   UNL     1      -2.550   2.023  -2.411  1.00  0.00     0.049 C 
ATOM     23  C   UNL     1      -6.006  -1.111  -0.467  1.00  0.00     0.052 C 
BRANCH  19  24
ATOM     24  O   UNL     1      -4.319  -1.561   1.663  1.00  0.00    -0.496 OA
ATOM     25  C   UNL     1      -3.482  -1.888   2.765  1.00  0.00     0.278 C 
ENDBRANCH  19  24
BRANCH  20  26
ATOM     26  O   UNL     1      -5.087   0.816  -2.383  1.00  0.00    -0.496 OA
ATOM     27  C   UNL     1      -6.011   1.845  -2.016  1.00  0.00     0.278 C 
ENDBRANCH  20  26
ENDBRANCH  15  16
ENDBRANCH  14  15
ENDBRANCH   1  14
TORSDOF 9
