REMARK SMILES CC1(C)CCC2(C1)CC1(CC(O)CC3(CCC(O)C4(CCC(O)C(C)(C)C4C(=O)O)C3)C1)CC2O
REMARK SMILES IDX 1 1 2 2 3 3 4 4 5 5 6 6 7 7 34 8 33 9 9 10 8 11 10 12 11 13
REMARK SMILES IDX 13 14 14 15 32 16 15 17 16 18 17 19 19 20 31 21 20 22 21 23
REMARK SMILES IDX 22 24 24 25 25 26 26 27 27 28 35 29 12 31 18 33 28 35 29 36
REMARK SMILES IDX 30 37 23 39
REMARK H PARENT 35 30 12 32 18 34 30 38 23 40
ROOT
ATOM      1  C   UNL     1       7.083   1.591  -1.041  1.00  0.00     0.011 C 
ATOM      2  C   UNL     1       5.578   1.356  -0.878  1.00  0.00    -0.035 C 
ATOM      3  C   UNL     1       4.835   2.669  -1.175  1.00  0.00     0.011 C 
ATOM      4  C   UNL     1       5.093   0.217  -1.779  1.00  0.00     0.007 C 
ATOM      5  C   UNL     1       3.780  -0.230  -1.146  1.00  0.00     0.010 C 
ATOM      6  C   UNL     1       3.975  -0.051   0.378  1.00  0.00    -0.003 C 
ATOM      7  C   UNL     1       5.237   0.830   0.528  1.00  0.00     0.016 C 
ATOM      8  C   UNL     1       4.105  -1.374   1.147  1.00  0.00     0.121 C 
ATOM      9  C   UNL     1       2.675  -1.902   1.244  1.00  0.00     0.039 C 
ATOM     10  C   UNL     1       1.758  -0.652   1.315  1.00  0.00    -0.024 C 
ATOM     11  C   UNL     1       2.734   0.540   1.068  1.00  0.00     0.017 C 
ATOM     12  C   UNL     1       1.091  -0.494   2.696  1.00  0.00     0.039 C 
ATOM     13  C   UNL     1       0.071  -1.590   3.021  1.00  0.00     0.115 C 
ATOM     14  C   UNL     1      -0.399  -2.378   1.800  1.00  0.00     0.038 C 
ATOM     15  C   UNL     1      -0.639  -1.501   0.548  1.00  0.00    -0.026 C 
ATOM     16  C   UNL     1       0.659  -0.688   0.215  1.00  0.00     0.014 C 
ATOM     17  C   UNL     1      -0.976  -2.439  -0.622  1.00  0.00     0.010 C 
ATOM     18  C   UNL     1      -1.395  -1.720  -1.901  1.00  0.00     0.033 C 
ATOM     19  C   UNL     1      -2.133  -0.389  -1.693  1.00  0.00     0.121 C 
ATOM     20  C   UNL     1      -2.876  -0.249  -0.334  1.00  0.00     0.011 C 
ATOM     21  C   UNL     1      -1.839  -0.534   0.825  1.00  0.00     0.017 C 
ATOM     22  C   UNL     1      -4.043  -1.279  -0.259  1.00  0.00     0.013 C 
ATOM     23  C   UNL     1      -5.224  -0.954  -1.176  1.00  0.00     0.033 C 
ATOM     24  C   UNL     1      -5.818   0.434  -0.933  1.00  0.00     0.121 C 
ATOM     25  C   UNL     1      -4.768   1.577  -0.968  1.00  0.00     0.005 C 
ATOM     26  C   UNL     1      -4.400   1.878  -2.444  1.00  0.00     0.015 C 
ATOM     27  C   UNL     1      -5.407   2.897  -0.450  1.00  0.00     0.015 C 
ATOM     28  C   UNL     1      -3.483   1.212  -0.129  1.00  0.00     0.116 C 
ENDROOT
BRANCH   8  29
ATOM     29  O   UNL     1       4.961  -2.299   0.502  1.00  0.00    -0.393 OA
ATOM     30  H   UNL     1       4.912  -3.134   0.999  1.00  0.00     0.210 HD
ENDBRANCH   8  29
BRANCH  13  31
ATOM     31  O   UNL     1       0.636  -2.517   3.948  1.00  0.00    -0.393 OA
ATOM     32  H   UNL     1       0.811  -2.034   4.774  1.00  0.00     0.210 HD
ENDBRANCH  13  31
BRANCH  19  33
ATOM     33  O   UNL     1      -1.209   0.689  -1.839  1.00  0.00    -0.393 OA
ATOM     34  H   UNL     1      -0.787   0.608  -2.712  1.00  0.00     0.210 HD
ENDBRANCH  19  33
BRANCH  28  35
ATOM     35  C   UNL     1      -3.767   1.453   1.351  1.00  0.00     0.307 C 
ATOM     36  O   UNL     1      -4.536   0.813   2.051  1.00  0.00    -0.252 OA
BRANCH  35  37
ATOM     37  O   UNL     1      -3.088   2.497   1.860  1.00  0.00    -0.481 OA
ATOM     38  H   UNL     1      -3.388   2.559   2.791  1.00  0.00     0.296 HD
ENDBRANCH  35  37
ENDBRANCH  28  35
BRANCH  24  39
ATOM     39  O   UNL     1      -6.555   0.410   0.289  1.00  0.00    -0.393 OA
ATOM     40  H   UNL     1      -5.942   0.310   1.044  1.00  0.00     0.210 HD
ENDBRANCH  24  39
TORSDOF 6
